<?xml version="1.0"?>
<VTKFile type="UnstructuredGrid"  version="0.1"  >
<UnstructuredGrid>
<Piece  NumberOfPoints="7288" NumberOfCells="14083">
<Points>
<DataArray  type="Float64"  NumberOfComponents="3"  format="ascii">239.8 188 0  250.2 180 0  258.2 172.4 0  257 169.4 0  259.9 157.4 0  258.7 150.3 0  261 143.5 0  251.7 144.4 0  250 138.7 0  247 138.1 0  245.2 130.8 0  247.3 126.4 0  242.7 118.6 0  231.2 107.7 0  226 102.4 0  226.5 93.90000000000001 0  224.5 91.19999999999999 0  224.5 84.09999999999999 0  234.5 73.80000000000001 0  228.4 68.90000000000001 0  230 70 0  233.4 68 0  222.7 61.5 0  220.6 45.5 0  223.4 49.40000000000001 0  224 47 0  221.8 43.09999999999999 0  221 38.40000000000001 0  219.5 38.5 0  219.4 41.69999999999999 0  217.1 36.90000000000001 0  209.7 36 0  209.5 31.69999999999999 0  205.1 29.90000000000001 0  201.5 30.40000000000001 0  199.2 38.69999999999999 0  201.8 41.40000000000001 0  194.8 53.80000000000001 0  196.1 57.69999999999999 0  193 59 0  191.4 66.09999999999999 0  193.5 66.5 0  194.1 64.40000000000001 0  195.6 64.69999999999999 0  195.4 72.40000000000001 0  199.5 77.30000000000001 0  197.7 86.90000000000001 0  200.6 87.5 0  201.5 91 0  198 94.80000000000001 0  198.6 100 0  197.3 105.4 0  198 109.5 0  197 112.7 0  198.3 116.1 0  201.3 122 0  207.2 121 0  208.1 126.7 0  205.6 127.9 0  209.1 134.9 0  210.9 144.4 0  210.1 147.9 0  213 148.4 0  215.4 149.3 0  215.1 152.8 0  219.9 159.7 0  220.3 163.2 0  218.7 164.9 0  219.9 166.7 0  221.9 169.7 0  220 170.3 0  224.9 174.7 0  229.8 177.4 0  229.7 181 0  228 172.9 0  239 178 0  240.4 180 0  239 181.5 0  241.2 185.9 0  242.95 187.99 0  240.5875 187.9975 0  241.375 187.995 0  242.1625 187.9925 0  243.6090909090879 187.2636363636397 0  244.2681818181765 186.5372727272785 0  244.9272727272692 185.810909090913 0  245.5863636363531 185.0845454545571 0  246.245454545445 184.3581818181923 0  246.9045454545351 183.6318181818295 0  247.5636363636303 182.9054545454612 0  248.2227272727197 182.1790909090992 0  248.8818181818179 181.4527272727275 0  249.5409090909066 180.7263636363664 0  250.8666666666961 179.3666666666387 0  251.5333333334033 178.7333333332668 0  252.2000000000994 178.0999999999055 0  252.8666666668011 177.466666666539 0  253.5333333335083 176.8333333331671 0  254.2000000002044 176.1999999998058 0  254.8666666669005 175.5666666664445 0  255.5333333336077 174.9333333330727 0  256.2000000002685 174.2999999997449 0  256.8666666668457 173.6666666664966 0  257.5333333334283 173.033333333243 0  257.9000000000077 171.6500000000191 0  257.6000000000015 170.9000000000038 0  257.2999999999954 170.1499999999885 0  257.2230769230778 168.4769230769195 0  257.4461538461543 167.5538461538442 0  257.6692307692309 166.6307692307688 0  257.8923076923074 165.7076923076935 0  258.115384615384 164.7846153846181 0  258.3384615384605 163.8615384615427 0  258.5615384615395 162.9384615384572 0  258.784615384616 162.0153846153819 0  259.0076923076926 161.0923076923065 0  259.2307692307691 160.1692307692311 0  259.4538461538457 159.2461538461558 0  259.6769230769222 158.3230769230804 0  259.750000000001 156.512500000006 0  259.6000000000014 155.6250000000082 0  259.4500000000029 154.7375000000176 0  259.3000000000018 153.8500000000108 0  259.1500000000007 152.962500000004 0  259.0000000000004 152.0750000000026 0  258.849999999999 151.187499999994 0  258.9875000000052 149.4499999999846 0  259.275000000002 148.5999999999941 0  259.5624999999954 147.7500000000135 0  259.849999999995 146.900000000015 0  260.1374999999945 146.0500000000164 0  260.4249999999913 145.2000000000259 0  260.7124999999948 144.3500000000154 0  260.0700000000398 143.5899999999961 0  259.1400000000573 143.6799999999944 0  258.2100000000351 143.7699999999966 0  257.2800000000262 143.8599999999975 0  256.350000000011 143.9499999999989 0  255.4199999999881 144.0400000000011 0  254.4899999999726 144.1300000000026 0  253.5599999999944 144.2200000000005 0  252.6300000000009 144.3099999999999 0  251.4166666666658 143.4499999999971 0  251.1333333333388 142.5000000000182 0  250.8500000000015 141.5500000000051 0  250.5666666666612 140.5999999999818 0  250.2833333333342 139.6500000000029 0  249.2500000000005 138.5500000000001 0  248.5000000000011 138.4000000000002 0  247.7499999999995 138.2499999999999 0  246.7750000000005 137.1875000000023 0  246.5500000000021 136.2750000000085 0  246.3250000000036 135.3625000000147 0  246.1000000000042 134.450000000017 0  245.8750000000022 133.5375000000088 0  245.650000000003 132.6250000000124 0  245.4250000000046 131.7125000000187 0  245.619999999996 129.9200000000084 0  246.0399999999992 129.0400000000017 0  246.4599999999987 128.1600000000028 0  246.8800000000001 127.2799999999997 0  246.8399999999988 125.6199999999979 0  246.3799999999984 124.8399999999973 0  245.9199999999991 124.0599999999985 0  245.4600000000036 123.2800000000062 0  245.0000000000049 122.5000000000082 0  244.5400000000036 121.7200000000062 0  244.0800000000033 120.9400000000056 0  243.6200000000016 120.1600000000027 0  243.1600000000012 119.3800000000021 0  241.9812499999996 117.9187499999997 0  241.2625000000007 117.2375000000007 0  240.5437500000017 116.5562500000017 0  239.8250000000041 115.875000000004 0  239.1062500000066 115.1937500000063 0  238.3875000000076 114.5125000000072 0  237.6687500000087 113.8312500000082 0  236.9500000000083 113.1500000000079 0  236.231250000008 112.4687500000076 0  235.512500000009 111.7875000000085 0  234.7937500000045 111.1062500000043 0  234.0750000000042 110.4250000000039 0  233.3562500000066 109.7437500000062 0  232.6375000000021 109.062500000002 0  231.9187500000031 108.381250000003 0  230.5500000000004 107.0375000000004 0  229.9000000000021 106.3750000000021 0  229.2500000000038 105.7125000000039 0  228.6000000000041 105.0500000000042 0  227.9500000000018 104.3875000000018 0  227.2999999999952 103.7249999999951 0  226.6500000000024 103.0625000000024 0  226.0555555555555 101.4555555555556 0  226.1111111111111 100.5111111111111 0  226.1666666666667 99.56666666666668 0  226.2222222222222 98.62222222222223 0  226.2777777777778 97.67777777777778 0  226.3333333333333 96.73333333333335 0  226.3888888888889 95.78888888888889 0  226.4444444444445 94.84444444444446 0  226 93.22499999999999 0  225.5000000000026 92.55000000000358 0  225.0000000000026 91.87500000000358 0  224.5 90.31250000000068 0  224.5 89.4250000000097 0  224.5 88.53750000001317 0  224.5 87.65000000001388 0  224.5 86.76250000001457 0  224.5 85.87500000001248 0  224.5 84.9874999999993 0  225.1666666666659 83.41333333333409 0  225.8333333333319 82.72666666666818 0  226.4999999999978 82.04000000000228 0  227.1666666666649 81.35333333333514 0  227.8333333333301 80.66666666667 0  228.4999999999942 79.980000000006 0  229.1666666666601 79.2933333333401 0  229.8333333333316 78.60666666666847 0  230.4999999999975 77.92000000000257 0  231.1666666666644 77.23333333333572 0  231.8333333333295 76.54666666667057 0  232.4999999999972 75.86000000000287 0  233.1666666666681 75.17333333333181 0  233.8333333333368 74.48666666666306 0  233.7499999999995 73.16666666666629 0  233.0000000000018 72.53333333333488 0  232.2500000000014 71.90000000000116 0  231.5000000000009 71.26666666666743 0  230.7500000000005 70.63333333333372 0  229.233333333333 68.75000000000006 0  230.0666666666665 68.60000000000004 0  230.8999999999995 68.45000000000009 0  231.7333333333325 68.30000000000015 0  232.566666666667 68.14999999999995 0  232.5499999999897 68.50000000000607 0  231.7 69 0  230.8500000000103 69.49999999999393 0  227.8300000000008 68.16000000000106 0  227.2600000000064 67.42000000000837 0  226.6900000000077 66.68000000001001 0  226.1200000000024 65.94000000000314 0  225.5500000000108 65.20000000001409 0  224.9800000000098 64.46000000001268 0  224.4100000000007 63.72000000000098 0  223.8399999999971 62.97999999999621 0  223.2699999999993 62.23999999999915 0  222.753846153846 60.56923076923239 0  222.8076923076921 59.63846153846478 0  222.8615384615381 58.70769230769827 0  222.9153846153842 57.77692307693071 0  222.9692307692302 56.84615384616315 0  223.0230769230761 55.91538461539836 0  223.0769230769224 54.98461538462665 0  223.1307692307688 54.05384615385345 0  223.184615384615 53.12307692308312 0  223.2384615384611 52.19230769231556 0  223.2923076923071 51.26153846154906 0  223.3461538461533 50.33076923077847 0  222.8400000000024 48.62000000000327 0  222.2800000000047 47.84000000000661 0  221.7200000000005 47.06000000000071 0  221.1600000000003 46.28000000000039 0  221.4500000000116 45.87500000000512 0  222.3 46.25 0  223.1499999999884 46.62499999999488 0  223.5600000000055 46.22000000000981 0  223.1199999999987 45.43999999999767 0  222.6800000000061 44.66000000001075 0  222.2399999999969 43.8799999999944 0  221.6400000000004 42.16000000000253 0  221.4800000000009 41.22000000000548 0  221.3200000000014 40.28000000000801 0  221.1600000000009 39.34000000000556 0  220.25 38.45 0  219.4749999999999 39.30000000000165 0  219.45 40.09999999999999 0  219.425 40.90000000000112 0  219.0166666666641 40.89999999999463 0  218.6333333333375 40.10000000000875 0  218.2500000000016 39.30000000000339 0  217.8666666666635 38.49999999999351 0  217.483333333337 37.70000000000762 0  216.1750000000165 36.78750000000201 0  215.2500000000275 36.67500000000335 0  214.3250000000385 36.56250000000469 0  213.4000000000277 36.45000000000337 0  212.4750000000059 36.33750000000072 0  211.5499999999838 36.22499999999803 0  210.6249999999835 36.11249999999799 0  209.6600000000001 35.14000000000318 0  209.6200000000001 34.28000000000268 0  209.5800000000001 33.42000000000284 0  209.5399999999998 32.55999999999681 0  208.6200000000117 31.34000000000476 0  207.7400000000138 30.98000000000564 0  206.8600000000162 30.62000000000662 0  205.9800000000174 30.26000000000711 0  204.2000000000054 30.02499999999925 0  203.2999999999946 30.15000000000076 0  202.3999999999945 30.27500000000076 0  201.2444444444438 31.32222222222468 0  200.9888888888895 32.24444444
[...]
<PointData  Vectors="f_12"> 
<DataArray  type="Float64"  Name="f_12"  NumberOfComponents="3" format="ascii">1.0000000000000000e-02 1.0000000000000000e-02 1.0000000000000000e-02  1.0000000000000000e-02 1.0000000000000000e-02 1.0000000000000000e-02  1.0000000000000000e-02 1.0000000000000000e-02 1.0000000000000000e-02  1.0000000000000000e-02 1.0000000000000000e-02 1.0000000000000000e-02  1.0000000000000000e-02 1.0000000000000000e-02 1.0000000000000000e-02  1.0000000000000000e-02 1.0000000000000000e-02 1.0000000000000000e-02  1.0000000000000000e-02 1.0000000000000000e-02 1.0000000000000000e-02  1.0000000000000000e-02 1.0000000000000000e-02 1.0000000000000000e-02  1.0000000000000000e-02 1.0000000000000000e-02 1.0000000000000000e-02  1.0000000000000000e-02 1.0000000000000000e-02 1.0000000000000000e-02  1.0000000000000000e-02 1.0000000000000000e-02 1.0000000000000000e-02  1.0000000000000000e-02 1.0000000000000000e-02 1.0000000000000000e-02  1.0000000000000000e-02 1.0000000000000000e-02 1.0000000000000000e-02  1.0000000000000000e-02 1.0000000000000000e-02 1.0000000000000000e-02  4.9205585831321652e-03 2.0473810957886074e-01 4.2883904664117578e-01  4.5664561956611852e-03 2.5521755818537234e-01 4.1275712812455290e-01  1.5105692637136443e-03 3.6961084342238248e-01 2.9244051902069251e-01  1.4257745188363557e-03 2.2140660012004393e-01 7.3660096788211649e-01  3.5429791006308131e-03 5.7400866067630507e-02 3.5130878740224214e-01  2.9321787233300037e-03 2.9800418324011047e-01 6.3980352614136660e-01  7.7664837903143548e-04 3.0235212677433065e-01 3.5866684382996289e-01  8.1451984253208543e-04 4.8656563536862146e-01 6.1563329316721593e-01  2.3107446936177777e-04 1.5229582695687072e-01 5.3136266193687032e-01  1.1213897799620103e-03 4.0029359612487436e-01 5.0078451795550372e-01  4.9399405782914428e-03 4.1378378706732766e-01 4.7836084656479444e-01  2.8163380094752607e-03 1.5549797095661055e-01 2.7706110573504211e-01  1.0122410437064272e-03 3.0941840265388304e-01 7.4170700677465606e-01  2.9882092479814231e-03 2.9804890907625553e-01 6.6998987217008354e-01  4.2079098371214218e-03 1.7032504825142480e-01 5.4155221372492512e-01  4.2813775071469514e-03 4.9401912672902287e-01 2.9654024877406915e-01  7.3545347240505318e-04 1.2218072475628894e-02 6.9692229620182389e-01  1.9732552493025579e-03 2.7196184506826909e-01 6.8678459907103018e-01  2.5786410027777042e-04 5.2550797067278887e-02 3.8581578432082697e-01  1.6828701914908852e-03 1.5937952572346814e-01 4.6486932712832724e-01  2.9056949903825957e-04 3.1197760598747626e-01 7.1840273537761057e-01  2.2969644822436594e-03 4.0167935647890718e-01 6.0886201715251287e-01  4.0716559607534529e-03 2.2492328481871965e-01 7.0519837065032531e-01  4.9724698695796411e-03 1.2502047287106277e-01 6.1322412630898948e-01  2.2473724118773743e-03 3.5500778127886623e-01 6.3886430701135422e-01  2.1995124535469411e-03 3.4103056188973907e-01 5.9046885465652676e-01  1.3299841090465110e-03 1.7109350137662599e-01 2.5891045369729460e-01  4.8717151618605592e-03 8.9047369792758513e-02 2.9140288563038225e-01  1.1351546248653255e-04 2.4631737165456008e-01 6.4817495973469597e-01  4.0985429522635174e-04 4.5871605235226154e-01 2.9454830479212668e-01  2.4602613033731452e-03 9.9655666020172562e-02 7.0620058216509463e-01  3.4656640398361962e-03 1.9623886778224381e-01 6.4285234647007972e-01  3.5147398912299672e-03 9.9194935452407929e-02 5.1740462217498762e-01  1.2097959287304339e-04 1.7033788665990746e-01 4.4337401447525987e-01  4.0397062645213299e-03 3.7035329721809285e-01 5.6127590707125696e-01  2.2709643478821869e-03 2.7584683523228792e-01 4.4366747122976530e-01  3.5800355827181373e-03 2.9124864620289564e-01 5.8181855330339904e-01  1.0000000000000000e-02 1.0000000000000000e-02 1.0000000000000000e-02  1.0000000000000000e-02 1.0000000000000000e-02 1.0000000000000000e-02  1.0000000000000000e-02 1.0000000000000000e-02 1.0000000000000000e-02  1.0000000000000000e-02 1.0000000000000000e-02 1.0000000000000000e-02  1.0000000000000000e-02 1.0000000000000000e-02 1.0000000000000000e-02  1.0000000000000000e-02 1.0000000000000000e-02 1.0000000000000000e-02  1.0000000000000000e-02 1.0000000000000000e-02 1.0000000000000000e-02  1.0000000000000000e-02 1.0000000000000000e-02 1.0000000000000000e-02  1.0000000000000000e-02 1.0000000000000000e-02 1.0000000000000000e-02  1.0000000000000000e-02 1.0000000000000000e-02 1.0000000000000000e-02  1.0000000000000000e-02 1.0000000000000000e-02 1.0000000000000000e-02  1.0000000000000000e-02 1.0000000000000000e-02 1.0000000000000000e-02  1.0000000000000000e-02 1.0000000000000000e-02 1.0000000000000000e-02  1.0000000000000000e-02 1.0000000000000000e-02 1.0000000000000000e-02  1.0000000000000000e-02 1.0000000000000000e-02 1.0000000000000000e-02  1.0000000000000000e-02 1.0000000000000000e-02 1.0000000000000000e-02  1.0000000000000000e-02 1.0000000000000000e-02 1.0000000000000000e-02  1.0000000000000000e-02 1.0000000000000000e-02 1.0000000000000000e-02  1.0000000000000000e-02 1.0000000000000000e-02 1.0000000000000000e-02  1.0000000000000000e-02 1.0000000000000000e-02 1.0000000000000000e-02  1.0000000000000000e-02 1.0000000000000000e-02 1.0000000000000000e-02  1.0000000000000000e-02 1.0000000000000000e-02 1.0000000000000000e-02  1.0000000000000000e-02 1.0000000000000000e-02 1.0000000000000000e-02  1.0000000000000000e-02 1.0000000000000000e-02 1.0000000000000000e-02  1.0000000000000000e-02 1.0000000000000000e-02 1.0000000000000000e-02  1.0000000000000000e-02 1.0000000000000000e-02 1.0000000000000000e-02  1.0000000000000000e-02 1.0000000000000000e-02 1.0000000000000000e-02  1.0000000000000000e-02 1.0000000000000000e-02 1.0000000000000000e-02  1.0000000000000000e-02 1.0000000000000000e-02 1.0000000000000000e-02  1.0000000000000000e-02 1.0000000000000000e-02 1.0000000000000000e-02  1.0000000000000000e-02 1.0000000000000000e-02 1.0000000000000000e-02  1.0000000000000000e-02 1.0000000000000000e-02 1.0000000000000000e-02  1.0000000000000000e-02 1.0000000000000000e-02 1.0000000000000000e-02  1.0000000000000000e-02 1.0000000000000000e-02 1.0000000000000000e-02  1.0000000000000000e-02 1.0000000000000000e-02 1.0000000000000000e-02  1.0000000000000000e-02 1.0000000000000000e-02 1.0000000000000000e-02  1.0000000000000000e-02 1.0000000000000000e-02 1.0000000000000000e-02  1.0000000000000000e-02 1.0000000000000000e-02 1.0000000000000000e-02  1.0000000000000000e-02 1.0000000000000000e-02 1.0000000000000000e-02  1.0000000000000000e-02 1.0000000000000000e-02 1.0000000000000000e-02  1.0000000000000000e-02 1.0000000000000000e-02 1.0000000000000000e-02  1.0000000000000000e-02 1.0000000000000000e-02 1.0000000000000000e-02  1.0000000000000000e-02 1.0000000000000000e-02 1.0000000000000000e-02  1.0000000000000000e-02 1.0000000000000000e-02 1.0000000000000000e-02  1.0000000000000000e-02 1.0000000000000000e-02 1.0000000000000000e-02  1.0000000000000000e-02 1.0000000000000000e-02 1.0000000000000000e-02  1.0000000000000000e-02 1.0000000000000000e-02 1.0000000000000000e-02  1.0000000000000000e-02 1.0000000000000000e-02 1.0000000000000000e-02  1.0000000000000000e-02 1.0000000000000000e-02 1.0000000000000000e-02  1.0000000000000000e-02 1.0000000000000000e-02 1.0000000000000000e-02  1.0000000000000000e-02 1.0000000000000000e-02 1.0000000000000000e-02  1.0000000000000000e-02 1.0000000000000000e-02 1.0000000000000000e-02  1.0000000000000000e-02 1.0000000000000000e-02 1.0000000000000000e-02  1.0000000000000000e-02 1.0000000000000000e-02 1.0000000000000000e-02  1.0000000000000000e-02 1.0000000000000000e-02 1.0000000000000000e-02  1.0000000000000000e-02 1.0000000000000000e-02 1.0000000000000000e-02  1.0000000000000000e-02 1.0000000000000000e-02 1.0000000000000000e-02  1.0000000000000000e-02 1.0000000000000000e-02 1.0000000000000000e-02  1.0000000000000000e-02 1.0000000000000000e-02 1.0000000000000000e-02  1.0000000000000000e-02 1.0000000000000000e-02 1.0000000000000000e-02  1.0000000000000000e-02 1.0000000000000000e-02 1.0000000000000000e-02  1.0000000000000000e-02 1.0000000000000000e-02 1.0000000000000000e-02  1.0000000000000000e-02 1.0000000000000000e-02 1.0000000000000000e-02  1.0000000000000000e-02 1.0000000000000000e-02 1.0000000000000000e-02  1.0000000000000000e-02 1.0000000000000000e-02 1.0000000000000000e-02  1.0000000000000000e-02 1.0000000000000000e-02 1.0000000000000000e-02  1.0000000000000000e-02 1.0000000000000000e-02 1.0000000000000000e-02  1.0000000000000000e-02 1.0000000000000000e-02 1.0000000000000000e-02  1.0000000000000000e-02 1.0000000000000000e-02 1.0000000000000000e-02  1.0000000000000000e-02 1.0000000000000000e-02 1.0000000000000000e-02  1.0000000000000000e-02 1.0000000000000000e-02 1.0000000000000000e-02  1.0000000000000000e-02 1.0000000000000000e-02 1.0000000000000000e-02  1.0000000000000000e-02 1.0000000000000000e-02 1.0000000000000000e-02  1.0000000000000000e-02 1.0000000000000000e-02 1.0000000000000000e-02  1.0000000000000000e-02 1.0000000000000000e-02 1.0000000000000000e-02  1.0000000000000000e-02 1.0000000000000000e-02 1.0000000000000000e-02  1.0000000000000000e-02 1.0000000000000000e-02 1.0000000000000000e-02  1.0000000000000000e-02 1.0000000000000000e-02 1.0000000000000000e-02  1.0000000000000000e-02 1.0000000000000000e-02 1.0000000000000000e-02  1.0000000000000000e-02 1.0000000000000000e-02 1.0000000000000000e-02  1.0000000000000000e-02 1.0000000000000000e-02 1.0000000000000000e-02  1.0000000000000000e-02 1.0000000000000000e-02 1.0000000000000000e-02  1.0000000000000000e-02 1.0000000000000000e-02 1.0000000000000000e-02  1.0000000000000000e-02 1.0000000000000000e-02 1.0000000000000000e-02  1.0000000000000000e-02 1.0000000000000000e-02 1.0000000000000000e-02  1.0000000000000000e-02 1.0000000000000000e-02 1.0000000000000000e-02  1.0000000000000000e-02 1.0000000000000000e-02 1.0000000000000000e-02  1.0000000000000000e-02 1.0000000000000000e-02 1.0000000000000000e-02  1.0000000000000000e-02 1.0000000000000000e-02 1.0000000000000000e-02  1.0000000000000000e-02 1.0000000000000000e-02 1.0000000000000000e-02  1.0000000000000000e-02 1.0000000000000000e-02 1.0000000000000000e-02  1.0000000000000000e-02 1.0000000000000000e-02 1.0000000000000000e-02  1.0000000000000000e-02 1.0000000000000000e-02 1.0000000000000000e-02  1.0000000000000000e-02 1.0000000000000000e-02 1.0000000000000000e-02  1.0000000000000000e-02 1.0000000000000000e-02 1.0000000000000000e-02  1.0000000000000000e-02 1.0000000000000000e-02 1.0000000000000000e-02  1.0000000000000000e-02 1.0000000000000000e-02 1.0000000000000000e-02  1.0000000000000000e-02 1.0000000000000000e-02 1.0000000000000000e-02  1.0000000000000000e-02 1.0000000000000000e-02 1.0000000000000000e-02  1.0000000000000000e-02 1.0000000000000000e-02 1.0000000000000000e-02  1.0000000000000000e-02 1.0000000000000000e-02 1.0000000000000000e-02  1.0000000000000000e-02 1.0000000000000000e-02 1.0000000000000000e-02  1.0000000000000000e-02 1.0000000000000000e-02 1.0000000000000000e-02  1.0000000000000000e-02 1.0000000000000000e-02 1.0000000000000000e-02  1.0000000000000000e-02 1.0000000000000000e-02 1.0000000000000000e-02  1.0000000000000000e-02 1.0000000000000000e-02 1.0000000000000000e-02  1.0000000000000000e-02 1.0000000000000000e-02 1.0000000000000000e-02  1.0000000000000000e-02 1.0000000000000000e-02 1.0000000000000000e-02  1.0000000000000000e-02 1.0000000000000000e-02 1.0000000000000000e-02  1.0000000000000000e-02 1.0000000000000000e-02 1.0000000000000000e-02  1.0000000000000000e-02 1.0000000000000000e-02 1.0000000000000000e-02  1.0000000000000000e-02 1.0000000000000000e-02 1.0000000000000000e-02  1.0000000000000000e-02 1.0000000000000000e-02 1.0000000000000000e-02  1.0000000000000000e-02 1.0000000000000000e-02 1.0000000000000000e-02  1.0000000000000000e-02 1.0000000000000000e-02 1.0000000000000000e-02  1.0000000000000000e-02 1.0000000000000000e-02 1.0000000000000000e-02  1.0000000000000000e-02 1.0000000000000000e-02 1.0000000000000000e-02  1.0000000000000000e-02 1.0000000000000000e-02 1.0000000000000000e-02  1.0000000000000000e-02 1.0000000000000000e-02 1.0000000000000000e-02  1.0000000000000000e-02 1.0000000000000000e-02 1.0000000000000000e-02  1.0000000000000000e-02 1.0000000000000000e-02 1.0000000000000000e-02  1.0000000000000000e-02 1.0000000000000000e-02 1.0000000000000000e-02  1.0000000000000000e-02 1.0000000000000000e-02 1.0000000000000000e-02  1.0000000000000000e-02 1.0000000000000000e-02 1.0000000000000000e-02  1.0000000000000000e-02 1.0000000000000000e-02 1.0000000000000000e-02  1.0000000000000000e-02 1.0000000000000000e-02 1.0000000000000000e-02  1.0000000000000000e-02 1.0000000000000000e-02 1.0000000000000000e-02  1.0000000000000000e-02 1.0000000000000000e-02 1.0000000000000000e-02  1.0000000000000000e-02 1.0000000000000000e-02 1.0000000000000000e-02  1.0000000000000000e-02 1.0000000000000000e-02 1.0000000000000000e-02  1.0000000000000000e-02 1.0000000000000000e-02 1.0000000000000000e-02  1.0000000000000000e-02 1.0000000000000000e-02 1.0000000000000000e-02  1.0000000000000000e-02 1.0000000000000000e-02 1.0000000000000000e-02  1.0000000000000000e-02 1.0000000000000000e-02 1.0000000000000000e-02  1.0000000000000000e-02 1.0000000000000000e-02 1.0000000000000000e-02  1.0000000000000000e-02 1.0000000000000000e-02 1.0000000000000000e-02  1.0000000000000000e-02 1.0000000000000000e-02 1.0000000000000000e-02  1.0000000000000000e-02 1.0000000000000000e-02 1.0000000000000000e-02  1.2876158992562003e-03 4.1844101571320214e-01 7.0824716810783317e-01  3.3472231214140978e-03 4.4831165701963255e-01 4.8073890000462582e-01  9.6249936606423168e-04 1.8165093048953257e-01 6.1179237418504118e-01  2.4694744617663835e-03 1.4111190871201063e-01 3.6850066446475810e-01  3.6948849007294540e-03 1.4336505150593415e-01 5.5637557558697559e-01  5.4423709396504369e-04 6.8824878124577160e-02 4.4811084457710243e-01  1.2960893948026359e-03 8.3200651023399075e-02 4.1868332918901696e-01  2.5255610448850024e-03 4.5796463736080978e-01 6.1391948831752585e-01  8.3866887279025087e-04 2.5772667802420574e-01 3.9687471351557480e-01  9.2819990513029753e-04 3.1705310212687426e-01 6.2232493082550921e-01  2.9214433377862700e-03 3.2731987952344055e-01 3.0221405600427342e-01  2.6227158464729311e-03 2.6868556276600486e-01 5.7010696700352326e-01  3.6806810804935631e-03 9.7144346006104165e-02 7.3813502650368967e-01  1.9777770881661383e-04 1.7522523396253520e-01 3.0731953035338372e-01  2.6231488044452678e-03 3.5084760797207987e-01 6.7538140339568609e-01  2.9308622961330679e-03 1.3037818672792356e-01 3.8809113421542346e-01  2.2087285638557820e-03 3.8340073254772744e-01 6.1545879234228207e-01  1.4814747828653129e-03 9.4889922595420673e-02 3.7955632664202210e-01  1.0350385198846096e-03 2.1643926880668551e-01 5.6378912889740640e-01  4.6527964073817688e-03 4.7862290520885115e-01 3.1133169741373923e-01  4.7988966021781434e-04 4.1023796428992643e-01 6.1391588692694377e-01  1.0813048018161603e-03 3.5855527012879063e-01 3.1438804133059089e-01  3.4704869605633355e-03 1.1693931608076180e-01 5.2332974043513880e-01  3.9656061418629190e-03 2.3456686230788959e-01 4.1948844598482360e-01  2.4634886413596310e-03 2.7473023900339200e-01 3.4362625115087431e-01  1.3375923810074158e-03 4.7441590419385821e-01 5.8215174873867992e-01  2.8639560674809956e-03 3.4691436234065121e-01 3.5665273920819912e-01  4.8477520223369607e-03 3.2020437428773096e-01 6.2885528151378844e-01  4.7871052719881236e-04 2.9893560282135839e-01 4.9375253368049032e-01  4.9622938015728424e-03 6.1221846044801409e-02 4.7845947161353752e-01  1.9620131304314320e-03 1.7331019853629359e-01 4.4849469188827101e-01  1.6132455939767100e-03 3.9625325271549644e-01 3.0880654532250251e-01  3.4942794198214067e-03 2.9754073928534247e-01 3.2816830430177252e-01  3.6109155199610245e-03 1.5678724879554934e-01 5.1429395425420532e-01  5.6786772114966852e-04 3.3082980066739043e-01 5.6892072325173126e-01  2.3214824580584660e-04 1.4178550060006678e-02 4.4006951607652645e-01  3.4815117247368106e-03 3.5121197546553073e-01 7.3320313206498133e-01  2.5409093946019896e-03 3.3557377720599751e-01 4.3760698167796686e-01  4.1528476970828700e-03 4.5473268050771165e-01 3.7853420188281217e-01  3.2162827001673130e-03 2.9911315139360029e-01 3.8689574173996261e-01  3.3098602610249941e-04 1.7111344424051655e-01 3.8414936669122929e-01  1.8977615270281095e-03 1.6409553563873269e-01 6.4652559944173305e-01  9.1988484713182112e-04 2.9899727142628246e-01 5.2042326654555238e-01  3.9383267357329278e-04 3.8700212766843656e-02 6.3595960984959365e-01  4.9571212348862546e-03 3.2722208163749578e-01 5.9678969063003473e-01  3.9513967034074402e-03 3.3108474993416082e-01 2.6123911460970162e-01  2.6673284607807669e-03 1.0286294290726783e-01 6.2020770517819868e-01  7.8301854387986759e-04 9.3750073308019821e-02 5.6299340172121282e-01  1.3716987764117339e-04 2.3662929503747471e-01 5.4961584151155352e-01  1.4368003053242262e-03 4.1734927244774944e-01 3.4155414851270305e-01  1.3800701216543337e-03 3.4813619972057852e-01 2.5865541823555865e-01  3.5372907278183917e-03 2.8126724320421337e-01 3.8239918148149032e-01  2.3644700361036119e-03 2.4759924041519060e-01 3.4878308427988569e-01  4.7060372234521090e-03 4.0972911808024481e-02 6.2928897842902631e-01  2.0114184778274652e-03 8.1467549387248539e-03 4.7052706376122710e-01  2.4021122997057555e-03 2.4841790497433058e-01 5.4614173071364114e-01  2.8417982287431520e-03 7.5851327455243811e-02 7.2713227141003944e-01  3.4952304880224699e-03 1.8868479796535864e-01 4.2956450551913994e-01  4.8481388735207376e-03 4.2704257056983363e-01 3.1500542966418094e-01  2.8029979024572042e-03 2.8245340651271800e-01 7.2221822400524049e-01  2.4045233820839469e-03 2.5436120786594341e-01 3.7305852600227590e-01  3.1688014182456791e-03 2.6113524801498184e-01 2.5943081066463375e-01  1.6784659712430906e-03 3.5578650691418956e-01 6.0885534922634676e-01  7.9217778938032665e-04 3.4606511283055641e-01 6.7904518781963796e-01  2.6288582006471447e-03 7.2350564961401131e-02 5.8648447447790231e-01  2.2643632084980666e-03 1.2611463255895183e-02 3.4797791286905660e-01  1.7436897272372865e-03 2.2671039178623648e-01 5.1999967734891062e-01  2.2770737771627293e-03 3.0058577660782870e-01 3.8293328461436799e-01  3.6776007638360067e-03 3.8233179116057325e-01 5.4266489842319254e-01  4.3661933404293427e-03 4.8244750249676194e-01 4.2941933946045913e-01  3.4337256475910292e-04 2.4036656540058726e-01 3.0903704523163378e-01  2.2321985291135094e-03 3.0190384771451462e-01 4.9402700653759885e-01  8.0677353588516968e-04 1.5097071120574623e-02 7.4832394195392893e-01  3.3083570470122683e-03 3.9229005943922762e-01 5.3239021211631399e-01  4.2340724211893162e-03 2.7808553800171248e-01 2.5991807793391442e-01  1.2092089581716258e-03 9.5401327509491707e-02 6.1184696704781638e-01  2.5218976817013954e-03 3.6102249520976121e-01 4.6603336181939975e-01  1.4743183161093465e-03 9.6114674146868584e-02 5.7405761210873951e-01  4.1229729970306585e-03 4.4542664717836211e-01 5.3059608795176283e-01  3.5196553524686953e-03 1.7318217761221444e-01 6.8077490795144024e-01  4.7264579963920538e-03 6.9173238851235608e-02 6.2618242362507170e-01  2.6182598977108657e-03 2.3855925133575723e-01 3.5012862862552196e-01  1.5986277723430049e-03 4.7060567290466476e-01 5.3877739848077966e-01  6.4543135060511910e-05 4.7099823421552039e-01 5.7744039468996489e-01  4.4126852393630015e-05 5.7139968191550872e-02 7.1778234674962127e-01  1.0584180634906743e-03 9.7978774884619146e-02 6.5015971848465182e-01  9.9434595792630360e-04 4.4363139786475903e-01 3.1207293490681248e-01  1.9691258370394460e-03 1.5243055625993285e-01 5.1500408986744406e-01  2.8559825529993884e-03 3.4376304318108020e-01 5.7337658291799376e-01  4.0520068828031426e-03 2.5154362137087677e-01 6.7730278415897649e-01  3.0416604973073440e-03 2.8732485799619623e-02 4.8904867499177890e-01  2.3203314863253495e-03 3.1229345505936984e-01 6.8891237991376264e-01  3.6254691541153391e-03 4.5950160410632268e-02 5.7517702188638942e-01  4.3562697388620430e-03 4.2418352497480732e-01 2.7347566901422088e-01  4.5292957648511633e-03 2.9803441360303667e-01 4.1518164056367513e-01  5.7012682850