<?xml version="1.0"?>
<VTKFile type="UnstructuredGrid"  version="0.1"  >
<UnstructuredGrid>
<Piece  NumberOfPoints="4940" NumberOfCells="9650">
<Points>
<DataArray  type="Float64"  NumberOfComponents="3"  format="ascii">500 250 0  0 250 0  250 500 0  250 0 0  256.8885856082646 499.9050767557906 0  263.7719401218049 499.6203791065173 0  270.6448364229772 499.1461232471188 0  277.5020553257866 498.4826693209355 0  284.3383895508592 497.6305211460281 0  291.1486476865662 496.5903258312597 0  297.9276581259182 495.3628732847843 0  304.6702729675493 493.9490956196674 0  311.3713719748657 492.3500664368026 0  318.0258664141369 490.5670000199653 0  324.6287029687753 488.6012504015818 0  331.1748675330201 486.4543103455647 0  337.6593890460416 484.1278102064655 0  344.0773432429536 481.6235166997244 0  350.4238564271474 478.9433315480048 0  356.694109139292 476.0892900492477 0  362.88333985546 473.0635595140469 0  368.9868485575419 469.8684376402048 0  375.0000003153078 466.5063507640667 0  380.9182288257928 462.9798520074548 0  386.7370398729688 459.2916193419558 0  392.4520147244077 455.444453565817 0  398.0588135356345 451.4412761437442 0  403.5531785622926 447.285127045646 0  408.9309374414144 442.9791624087773 0  414.1880064015299 438.5266521049243 0  419.3203932989752 433.9309773069245 0  424.324200661095 429.1956279150535 0  429.1956286596235 424.3241998957182 0  433.9309780058756 419.3203925397119 0  438.5266527445345 414.1880056671062 0  442.9791630130591 408.9309367076756 0  447.2851276060475 403.5531778422888 0  451.4412766621026 398.0588128303826 0  455.4444540361634 392.4520140460735 0  459.2916197786263 386.7370392045948 0  462.9798524073514 380.9182281752347 0  466.5063511234856 374.9999996927758 0  469.8684379657123 368.9868479560565 0  473.0635598144817 362.8833392617846 0  476.0892903190255 356.6941085676214 0  478.9433317963513 350.4238558609745 0  481.6235169154735 344.0773427117675 0  484.12781039012 337.6593885555221 0  486.4543105028062 331.1748670749914 0  488.601250531677 324.6287025528375 0  490.5670001317469 318.0258660188321 0  492.3500665291326 311.3713716102628 0  493.949095695951 304.6702726271575 0  495.3628733416623 297.9276578347343 0  496.5903258712341 291.1486474470129 0  497.6305211749058 284.3383893426084 0  498.4826693388848 277.502055163614 0  499.1461232580606 270.6448362909296 0  499.6203791109319 263.7719400417897 0  499.9050767571306 256.8885855596534 0  499.9050767559877 243.1114143988867 0  499.6203791069493 236.2280598860241 0  499.1461232485393 229.3551635941651 0  498.4826693235677 222.4979446979962 0  497.6305211491849 215.6616104719064 0  496.5903258357701 208.8513523404629 0  495.3628732906988 202.0723419043604 0  493.9490956264813 195.3297270628552 0  492.3500664487791 188.6286280724281 0  490.5670000344809 181.9741336371959 0  488.6012504175981 175.3712970824318 0  486.4543103623226 168.8251325157939 0  484.1278102222298 162.3406109960628 0  481.6235167152198 155.9226567951971 0  478.9433315621651 149.5761436051346 0  476.0892900516498 143.3058908657982 0  473.063559513628 137.1166601437124 0  469.8684376406648 131.0131514433083 0  466.5063507675389 124.9999996907064 0  462.9798520124137 119.0817711822745 0  459.2916193464549 113.2629601339176 0  455.4444535642773 107.5479852733717 0  451.4412761528674 101.9411864767781 0  447.2851270583545 96.44682145403524 0  442.9791624165781 91.06906256805769 0  438.5266521117469 85.81199360630404 0  433.9309773156125 80.67960671046254 0  429.1956279150353 75.67579933888632 0  424.3241998888952 70.80437133373906 0  419.3203925223282 66.06902197812161 0  414.1880056411937 61.47334723289828 0  408.9309366751728 57.0208369601728 0  403.5531778009394 52.71487236176898 0  398.058812796452 48.55872331295853 0  392.4520140187753 44.55554594490843 0  386.7370391799677 40.70838020528396 0  380.9182281475119 37.02014757560744 0  374.9999996718656 33.49364886444181 0  368.9868479340393 30.13156202237255 0  362.8833392380029 26.93644017348339 0  356.6941085456942 23.91070967062674 0  350.4238558420009 21.0566681953261 0  344.0773426899492 18.37648307566465 0  337.6593885328982 15.87218960140942 0  331.1748670549786 13.54568949032341 0  324.6287025315056 11.39874946165088 0  318.0258660010876 9.432999863235466 0  311.3713716017894 7.649933468721599 0  304.6702726190621 6.050904302234756 0  297.9276578269805 4.637126656823085 0  291.148647441857 3.409674127905504 0  284.3383893425031 2.369478825079682 0  277.502055159398 1.517330660648639 0  270.6448362875833 0.853876741662134 0  263.7719400401456 0.3796208889774277 0  256.8885855592052 0.09492324285704967 0  243.1114143979462 0.09492324403817065 0  236.2280598850882 0.3796208931023841 0  229.3551635938215 0.8538767514891958 0  222.4979446968584 1.517330676558146 0  215.6616104703111 2.369478851036291 0  208.8513523382973 3.409674164591252 0  202.0723419066374 4.637126708856528 0  195.3297270659513 6.050904372824903 0  188.628628074828 7.649933550613184 0  181.9741336377093 9.432999965373938 0  175.3712970793675 11.39874958336037 0  168.8251325057572 13.54568964112298 0  162.340610986655 15.87218978129263 0  155.9226567874317 18.37648328793418 0  149.576143602509 21.05666843898663 0  143.3058908718157 23.91070994551046 0  137.1166601505524 26.93644048291054 0  131.0131514451933 30.13156235831508 0  124.9999996848412 33.49364923584736 0  119.0817711715717 37.0201479941652 0  113.2629601211624 40.70838066187849 0  107.5479852622251 44.55554644345162 0  101.9411864693332 48.55872385260452 0  96.44682143286516 52.71487295812284 0  91.06906254351222 57.02083760363669 0  85.81199358272519 61.4733479087879 0  80.67960667988106 66.06902271253972 0  75.67579930062769 70.80437212218331 0  70.80437129287643 75.67580015310926 0  66.06902193673014 80.67960752263491 0  61.47334718684866 85.81199441168215 0  57.02083692524275 91.0690633672404 0  52.71487232786438 96.44682224262129 0  48.55872328070024 101.941187247437 0  44.55554591578033 107.5479860232332 0  40.7083801742321 113.2629608675606 0  37.02014754791168 119.0817718975441 0  33.49364883372994 125.000000381329 0  30.13156199866361 131.0131521097709 0  26.9364401549829 137.1166607985551 0  23.91070965524918 143.3058914868915 0  21.05666818346614 149.576144185037 0  18.37648306853811 155.9226573275967 0  15.8721895918909 162.3406114925245 0  13.54568948170046 168.8251329701392 0  11.39874945301878 175.3712974960928 0  9.432999857087736 181.9741340206533 0  7.649933466342702 188.6286284076045 0  6.050904301250966 195.3297273853278 0  4.637126656808988 202.0723421730917 0  3.409674127767772 208.8513525589684 0  2.369478824521138 215.6616106615248 0  1.517330660909465 222.4979448382452 0  0.8538767414496533 229.355163714981 0  0.3796208887135322 236.2280599646376 0  0.09492324266324204 243.1114144478261 0  0.0949232442452228 256.8885856095658 0  0.3796208935834784 263.7719401236316 0  0.8538767530323526 270.6448364248016 0  1.517330679476544 277.5020553295092 0  2.369478854618649 284.3383895555228 0  3.409674170191892 291.1486476952655 0  4.6371267162381 297.9276581311522 0  6.050904381420935 304.6702729724059 0  7.649933562385399 311.3713719716595 0  9.43299997979841 318.0258664133013 0  11.3987495994252 324.6287029719946 0  13.54568965885832 331.174867545904 0  15.87218979367188 337.6593890464085 0  18.37648329843151 344.0773432384132 0  21.05666844777872 350.423856417535 0  23.91070995156048 356.6941091410045 0  26.93644048988043 362.8833398632205 0  30.13156235982007 368.9868485575877 0  33.49364924138357 375.0000003247478 0  37.0201480006036 380.9182288389023 0  40.70838066758398 386.7370398875706 0  44.55554644477201 392.4520147396792 0  48.55872386086904 398.0588135419111 0  52.71487295981296 403.5531785693063 0  57.02083760525949 408.9309374584583 0  61.47334790862246 414.1880064170849 0  66.06902271205095 419.320393319588 0  70.80437211216579 424.3242006890749 0  75.67580013809859 429.195628692521 0  80.6796075127923 433.930978054209 0  85.81199439754931 438.5266528008431 0  91.06906334717917 442.9791630582355 0  96.44682221438322 447.2851276501571 0  101.9411872243843 451.441276702356 0  107.5479859945825 455.4444540643537 0  113.2629608446994 459.2916198108319 0  119.0817718768376 462.9798524393601 0  125.0000003647644 466.5063511567065 0  131.0131521012763 469.8684379967393 0  137.1166607840049 473.0635598376539 0  143.3058914748804 476.0892903390826 0  149.5761441732679 478.9433318113714 0  155.9226573130112 481.6235169255377 0  162.3406114779862 484.1278104026658 0  168.8251329570439 486.4543105138039 0  175.3712974805475 488.601250542119 0  181.9741340135204 490.5670001408953 0  188.6286284005059 492.3500665318597 0  195.3297273788229 493.9490956972913 0  202.0723421640089 495.3628733414168 0  208.8513525529672 496.5903258712308 0  215.6616106544547 497.6305211744985 0  222.4979448327038 498.4826693384772 0  229.3551637102845 499.1461232581612 0  236.2280599621369 499.6203791111485 0  243.1114144470173 499.9050767573145 0  155.2373389820306 474.8197567317462 0  25.36256300907667 153.9152755065208 0  432.3709625126712 412.6214396304305 0  6.013151705810699 246.637913163471 0  246.6379131630491 493.986848294322 0  338.6995838441862 22.68244767887072 0  477.3175523131281 338.6995838660569 0  493.9868482700757 246.6379131399102 0  246.6201155078769 6.218451882810491 0  417.6179310263282 72.7156044707053 0  102.2232990934413 445.0100869616822 0  63.66330858966404 92.20354579482142 0  391.3105220491464 50.73522820883105 0  72.79295043967942 418.0702734974704 0  448.290574428537 108.25674339002 0  402.4604651193511 440.7462829841712 0  97.55317348421397 59.11376320116034 0  136.7376477664901 33.58246472647134 0  363.3288394375288 465.6947312928271 0  44.0678766556007 381.0860953771871 0  469.6905266180034 142.3890690100806 0  22.68244791668644 338.6995843487432 0  338.699584349159 477.317552078365 0  173.389488083762 18.6681884918202 0  483.4809734778481 179.7121987795732 0  13.50237455842738 306.4709525540879 0  305.9825168523021 487.24416992
[...]
<PointData  Vectors="f_12"> 
<DataArray  type="Float64"  Name="f_12"  NumberOfComponents="3" format="ascii">0.0000000000000000e+00 4.1660272014740918e-01 4.8134535405281433e-02  0.0000000000000000e+00 8.4823242085716599e-01 2.6621931121634440e-01  0.0000000000000000e+00 8.6536511873333111e-01 2.3536653242727443e-01  0.0000000000000000e+00 6.4335546285141965e-01 5.7980787951440715e-01  0.0000000000000000e+00 8.9240124202557169e-01 1.8904584766846844e-01  0.0000000000000000e+00 9.0353970203685707e-01 1.4928220211456650e-01  0.0000000000000000e+00 8.7965616276721226e-01 1.0937651794654167e-01  0.0000000000000000e+00 7.4801284177849836e-01 7.3341923453548216e-02  0.0000000000000000e+00 5.8484418838706131e-01 8.0253150650363050e-02  0.0000000000000000e+00 3.5549503008930905e-01 2.1271351541183176e-01  0.0000000000000000e+00 1.6032323233105777e-01 5.3355077842456011e-01  0.0000000000000000e+00 6.3877024541041105e-01 5.5642426364611097e-01  0.0000000000000000e+00 7.8022542928655869e-01 3.4890370364295681e-01  0.0000000000000000e+00 1.7934692869019206e-01 7.0716124566309324e-01  0.0000000000000000e+00 1.4864626064084149e-01 3.5720200347532777e-01  0.0000000000000000e+00 2.7131829506635319e-01 7.6548282887907482e-01  0.0000000000000000e+00 2.6081351429932309e-01 8.9868092479138784e-01  0.0000000000000000e+00 5.6090095257221098e-02 4.9465704444340952e-01  0.0000000000000000e+00 4.7451806519326491e-02 1.7052699960577655e-01  0.0000000000000000e+00 2.6215693658046196e-02 2.2885615206921101e-01  0.0000000000000000e+00 2.6123688247521731e-02 4.8559409364901313e-01  0.0000000000000000e+00 2.6315173348377369e-01 9.6307580733409670e-01  0.0000000000000000e+00 7.2180402880687555e-01 4.6707285513988533e-01  0.0000000000000000e+00 4.8573416132077024e-01 7.6761031891934717e-01  0.0000000000000000e+00 3.0182254988604618e-01 8.9779981334715120e-01  0.0000000000000000e+00 4.6695799352929884e-01 7.7789090436775732e-01  0.0000000000000000e+00 7.9073008425262570e-01 3.4628494711514513e-01  0.0000000000000000e+00 8.8759536205887701e-01 1.1798619287587679e-01  0.0000000000000000e+00 8.2696558709620582e-01 7.5792838533657952e-02  0.0000000000000000e+00 7.0249106814351669e-01 1.5123909333454724e-01  0.0000000000000000e+00 2.6084675067992780e-01 2.4552863603082892e-01  0.0000000000000000e+00 6.5515188975774297e-02 6.3912527822955678e-01  0.0000000000000000e+00 5.7070212476327098e-01 6.8851559010050145e-01  0.0000000000000000e+00 5.5186122792610548e-01 6.8504675638370316e-01  0.0000000000000000e+00 3.3465509624887102e-01 8.9385269212795249e-01  0.0000000000000000e+00 1.6156604924597293e-01 9.0928840434165437e-01  0.0000000000000000e+00 2.4974529162695269e-01 9.0955243843637523e-01  0.0000000000000000e+00 7.1997581380938125e-01 4.1311162044007943e-01  0.0000000000000000e+00 6.2833588116980610e-01 6.6898909142183674e-02  0.0000000000000000e+00 6.5432628111611146e-01 7.0916051310582831e-02  0.0000000000000000e+00 5.8934405541119939e-01 5.7853239375230925e-01  0.0000000000000000e+00 9.9803513394405949e-02 7.7241366290347124e-01  0.0000000000000000e+00 1.3760266693192427e-01 4.6507084089742029e-01  0.0000000000000000e+00 5.6347398726055564e-01 2.7372744274809696e-01  0.0000000000000000e+00 3.7498038846181669e-01 5.0600138002628435e-02  0.0000000000000000e+00 6.1952275895353759e-01 9.4095553554382039e-02  0.0000000000000000e+00 8.4589037174280590e-01 2.1822447572544640e-01  0.0000000000000000e+00 7.8268026848189132e-01 3.7170624392137502e-01  0.0000000000000000e+00 3.5200451572566643e-01 8.9629700087702580e-01  0.0000000000000000e+00 3.2380530805348862e-02 6.3816685534005824e-01  0.0000000000000000e+00 3.2416983017952920e-02 2.3554643074446333e-01  0.0000000000000000e+00 5.8183743855026428e-02 1.1296891565276719e-01  0.0000000000000000e+00 5.8830182053940534e-02 9.3228530364902626e-02  0.0000000000000000e+00 4.1241396665833048e-02 1.3817291831940740e-01  0.0000000000000000e+00 3.2375936334452626e-02 3.0042931853529148e-01  0.0000000000000000e+00 1.1397289462061906e-01 8.9117403287773000e-01  0.0000000000000000e+00 7.4430053379817707e-01 4.5793110751458571e-01  0.0000000000000000e+00 9.1990017091275389e-01 5.3930410352882006e-02  0.0000000000000000e+00 7.4090679032401785e-01 1.0030837633692688e-01  0.0000000000000000e+00 3.3496763442914690e-01 4.8762762160829941e-02  0.0000000000000000e+00 8.0109859304659559e-01 1.0290334084026631e-01  0.0000000000000000e+00 7.4686171798678636e-01 4.1181238445596707e-01  0.0000000000000000e+00 2.8675552155411732e-01 9.3946004772457137e-01  0.0000000000000000e+00 5.7113551349035285e-02 7.9150864024209944e-01  0.0000000000000000e+00 3.0498971491217629e-02 6.2112954650453467e-01  0.0000000000000000e+00 3.6942226197218264e-02 6.7320132097986218e-01  0.0000000000000000e+00 1.4262133530182552e-01 9.3535418511030011e-01  0.0000000000000000e+00 4.8168083731139122e-01 7.7091578575082986e-01  0.0000000000000000e+00 7.3964810703226580e-01 3.9998480266942921e-01  0.0000000000000000e+00 6.3698348809781558e-01 1.5987166741983089e-01  0.0000000000000000e+00 6.9602157531798992e-02 6.0015930431415170e-02  0.0000000000000000e+00 2.2967562555022378e-01 8.2083132856591218e-02  0.0000000000000000e+00 7.3481295200969232e-01 2.9311203729725238e-01  0.0000000000000000e+00 6.9343860598358875e-01 4.9719850805201077e-01  0.0000000000000000e+00 3.9520527306823694e-01 8.6382997104294956e-01  0.0000000000000000e+00 7.7593231433977131e-02 8.6846218988533441e-01  0.0000000000000000e+00 3.1176223469739372e-02 6.2164311268673544e-01  0.0000000000000000e+00 4.1739824425208447e-02 6.9412728689724512e-01  0.0000000000000000e+00 6.6212068508653119e-02 8.7918560855526073e-01  0.0000000000000000e+00 3.4138361869779955e-02 5.3711260999343591e-01  0.0000000000000000e+00 5.8000422534631779e-02 1.6857166351216843e-01  0.0000000000000000e+00 1.5317122070576225e-01 7.9763702015473184e-02  0.0000000000000000e+00 2.3214341639651681e-01 5.3235829755692486e-02  0.0000000000000000e+00 2.0510530319088147e-01 5.3275619973368132e-02  0.0000000000000000e+00 9.1569766115579335e-02 5.0268886298665334e-02  0.0000000000000000e+00 2.7746340065411801e-01 6.6873238325429088e-02  0.0000000000000000e+00 7.5817883390716190e-01 2.5764069624670771e-01  0.0000000000000000e+00 7.3924532794024655e-01 4.3333172774498668e-01  0.0000000000000000e+00 3.5253585973825974e-01 9.1009457624043888e-01  0.0000000000000000e+00 4.2929323819650075e-02 4.6993167423775611e-01  0.0000000000000000e+00 1.1710492665785394e-01 1.3637708957686104e-01  0.0000000000000000e+00 3.0675889281120544e-01 6.8242161882217281e-02  0.0000000000000000e+00 4.6787864832821596e-01 5.7762615700514476e-02  0.0000000000000000e+00 7.1022302980635621e-01 6.5988213888175287e-02  0.0000000000000000e+00 8.7812894079379766e-01 1.1257865634386029e-01  0.0000000000000000e+00 8.7755464547688000e-01 1.9764432283017885e-01  0.0000000000000000e+00 8.7002025019179641e-01 2.1988693157104872e-01  0.0000000000000000e+00 8.6670750386819728e-01 2.1331270378838332e-01  0.0000000000000000e+00 8.0858508208973945e-01 1.4665940018776921e-01  0.0000000000000000e+00 3.9793704766392285e-01 1.0114079128883502e-01  0.0000000000000000e+00 5.1531285763538590e-02 1.3945891162248003e-01  0.0000000000000000e+00 4.4834641852825936e-02 5.2248253704748826e-01  0.0000000000000000e+00 4.1713039408509017e-01 8.5507542148165194e-01  0.0000000000000000e+00 8.1093521218254727e-01 3.2929848473592460e-01  0.0000000000000000e+00 6.4760121564420958e-01 5.5445270279165260e-01  0.0000000000000000e+00 5.2436890199403452e-01 3.3112870586867332e-01  0.0000000000000000e+00 7.4028196794482554e-02 1.6781624884302795e-01  0.0000000000000000e+00 1.8415492441835293e-02 2.6162234390120137e-01  0.0000000000000000e+00 2.1908088312003110e-02 2.5622062845369903e-01  0.0000000000000000e+00 1.9730650828890167e-02 1.7610999136946695e-01  0.0000000000000000e+00 3.5584154466753400e-02 1.0371380149831681e-01  0.0000000000000000e+00 7.9776686870030894e-02 6.9674227298241062e-02  0.0000000000000000e+00 1.5928685379194071e-01 6.2502094781856088e-02  0.0000000000000000e+00 2.1178051603563264e-01 5.4699423597330814e-02  0.0000000000000000e+00 5.7636179631303053e-01 9.4498437674596092e-02  0.0000000000000000e+00 8.0530719778256810e-01 2.6908344518839755e-01  0.0000000000000000e+00 4.0952774350984067e-01 8.1399023121875758e-01  0.0000000000000000e+00 2.2100034955794867e-01 9.3268994411859873e-01  0.0000000000000000e+00 3.9039141249253451e-01 8.9040006830463625e-01  0.0000000000000000e+00 8.1035962349101390e-02 6.7546734173770517e-01  0.0000000000000000e+00 1.2452171676935649e-01 1.6415205173810302e-01  0.0000000000000000e+00 7.5837496222968245e-02 8.5360498697930831e-02  0.0000000000000000e+00 3.2217208767406275e-02 1.2488503569678532e-01  0.0000000000000000e+00 3.3962359077841196e-02 1.8392098247834893e-01  0.0000000000000000e+00 4.1066061867204531e-02 4.7739008620458673e-01  0.0000000000000000e+00 3.6876722300670739e-01 9.3853741132388879e-01  0.0000000000000000e+00 8.9888273533499841e-01 1.7382584110456270e-01  0.0000000000000000e+00 9.0165491418368970e-01 1.6730102704240346e-01  0.0000000000000000e+00 8.7221585055171580e-01 1.9479326968715596e-01  0.0000000000000000e+00 8.7868767339255538e-01 8.1306261713403466e-02  0.0000000000000000e+00 8.6707098966108720e-01 1.1910850239893790e-01  0.0000000000000000e+00 7.6942189033509223e-01 1.3473633577975885e-01  0.0000000000000000e+00 6.0264453518681815e-01 6.0202338046870349e-02  0.0000000000000000e+00 8.3059002611792998e-01 1.5093868203346819e-01  0.0000000000000000e+00 8.7013330120614107e-01 1.9808321956823846e-01  0.0000000000000000e+00 8.7166940192990172e-01 2.0513886262009867e-01  0.0000000000000000e+00 8.6607514972037591e-01 2.0686208397298569e-01  0.0000000000000000e+00 8.5482621046393337e-01 2.0083835976262029e-01  0.0000000000000000e+00 8.3364403400626341e-01 1.6246894901188688e-01  0.0000000000000000e+00 6.6843361790039379e-01 8.5308644501755293e-02  0.0000000000000000e+00 5.6502907440256722e-01 5.3136896642532586e-02  0.0000000000000000e+00 6.2908210089539562e-01 3.9264711772564409e-01  0.0000000000000000e+00 2.3908475104013507e-01 5.5106332928902091e-01  0.0000000000000000e+00 9.8813100270234849e-02 1.5932943448927053e-01  0.0000000000000000e+00 2.2481749308416524e-02 1.7452792717978780e-01  0.0000000000000000e+00 3.1990815137490580e-02 1.6543749563864626e-01  0.0000000000000000e+00 9.7027362593750069e-02 9.1659321625198464e-02  0.0000000000000000e+00 1.4085903489900931e-01 5.4616398427055596e-02  0.0000000000000000e+00 1.7714043690284018e-01 4.5691168841630769e-02  0.0000000000000000e+00 1.8051633001372716e-01 3.9007733227176433e-02  0.0000000000000000e+00 3.1285194736406352e-01 4.8728771951282536e-02  0.0000000000000000e+00 5.3385472753458618e-01 5.9298432838249357e-02  0.0000000000000000e+00 5.5978573429563361e-01 7.5363141706133577e-02  0.0000000000000000e+00 2.9023169446464231e-01 1.1914513615357984e-01  0.0000000000000000e+00 4.9598200077815617e-02 1.9058733043252538e-01  0.0000000000000000e+00 2.0401337032301629e-02 3.8456800889906601e-01  0.0000000000000000e+00 2.3005117918198162e-02 5.2628414189581862e-01  0.0000000000000000e+00 4.2659476701793132e-02 7.5035521811956718e-01  0.0000000000000000e+00 2.5345130881547667e-01 9.6335658551895187e-01  0.0000000000000000e+00 7.3275722685621558e-01 4.7970583896394237e-01  0.0000000000000000e+00 7.9515239969573348e-01 3.5127675087679905e-01  0.0000000000000000e+00 5.3126199950280995e-01 7.0310757579910232e-01  0.0000000000000000e+00 4.6544141006955975e-01 8.1857272826621685e-01  0.0000000000000000e+00 4.7110133128536114e-01 7.8128010002177040e-01  0.0000000000000000e+00 5.9860789262154657e-01 6.5384699329672680e-01  0.0000000000000000e+00 7.4742954804526562e-01 4.2029054322280379e-01  0.0000000000000000e+00 8.6643073168331519e-01 2.2637426222141530e-01  0.0000000000000000e+00 9.2319821230716603e-01 9.9761425662649866e-02  0.0000000000000000e+00 9.2136654131457407e-01 9.2507428739633440e-02  0.0000000000000000e+00 8.7526446062681007e-01 2.0835825706289821e-01  0.0000000000000000e+00 8.5054018292066946e-01 2.5579429955290017e-01  0.0000000000000000e+00 8.4375982909422975e-01 2.6521895474965324e-01  0.0000000000000000e+00 8.1701012642490756e-01 3.1215261735624111e-01  0.0000000000000000e+00 7.4672048395968693e-01 2.8675536445665833e-01  0.0000000000000000e+00 4.8437172376680504e-01 5.3218877503325705e-02  0.0000000000000000e+00 6.0755906895458767e-01 2.9955184581835098e-01  0.0000000000000000e+00 3.4089687035314264e-01 8.4093008866943431e-01  0.0000000000000000e+00 5.1546666585798284e-01 7.2649647817445206e-01  0.0000000000000000e+00 3.5641629088335031e-01 9.1245041611138067e-01  0.0000000000000000e+00 3.6320854235875707e-02 6.7579477674185440e-01  0.0000000000000000e+00 2.3749363605801394e-02 3.2258240266636917e-01  0.0000000000000000e+00 1.8052624850424671e-02 3.0863649961679884e-01  0.0000000000000000e+00 2.8066174345804808e-02 5.3238087130850509e-01  0.0000000000000000e+00 1.8636861711027169e-01 9.4457138661886986e-01  0.0000000000000000e+00 7.2531717083248604e-01 4.4587616520339390e-01  0.0000000000000000e+00 9.0374532789759254e-01 8.4628309326398837e-02  0.0000000000000000e+00 8.0894500696411387e-01 2.0485495183416913e-01  0.0000000000000000e+00 4.7766325027957496e-01 3.1975610443738062e-01  0.0000000000000000e+00 6.5514188759231123e-02 3.5036176643811795e-01  0.0000000000000000e+00 2.5642335021595331e-01 9.3200472138533252e-01  0.0000000000000000e+00 8.4568374846778605e-01 2.7470683660880363e-01  0.0000000000000000e+00 9.2696238103244544e-01 1.1180947213894608e-01  0.0000000000000000e+00 8.6032201519017792e-01 2.3709459368049571e-01  0.0000000000000000e+00 4.7327750591343815e-01 7.9828866120855446e-01  0.0000000000000000e+00 1.0360772038612039e-01 9.1181074406752194e-01  0.0000000000000000e+00 2.3027868041606642e-02 5.2041459614247076e-01  0.0000000000000000e+00 2.2698562051510815e-02 3.4529399810036987e-01  0.0000000000000000e+00 2.4812599744373443e-02 4.1587015198704014e-01  0.0000000000000000e+00 4.8142754745638353e-02 7.6340153615183415e-01  0.0000000000000000e+00 3.8848266999143499e-01 8.7631735776104280e-01  0.0000000000000000e+00 8.2172304146010455e-01 3.0482357765809404e-01  0.0000000000000000e+00 8.6152155240009665e-01 1.7118037826951585e-01  0.0000000000000000e+00 4.6662450962796992e-01 1.9829322190520787e-01  0.0000000000000000e+00 4.0855390241043489e-02 1.9498011411710867e-01  0.0000000000000000e+00 2.1621583767146086e-02 2.5366898105205016e-01  0.0000000000000000e+00 2.1451279714438481e-02 2.5895291734442716e-01  0.0000000000000000e+00 2.8023610029947216e-02 2.3316995215028147e-01  0.0000000000000000e+00 3.1351145024051669e-01 2.3256416849728573e-01  0.0000000000000000e+00 6.2418643320437872e-01 1.0957174395215438e-01  0.0000000000000000e+00 3.6904629909937864e-01 7.0886547926895943e-02  0.0000000000000000e+00 1.2214902446552008e-01 7.6390923897743018e-02  0.0000000000000000e+00 5.0320538733753382e-02 1.5122120781359058e-01  0.0000000000000000e+00 1.5339955802650678e-03 1.8505886546228123e-01  0.0000000000000000e+00 2.1405063760126519e-01 1.5943283746213699e-01  0.0000000000000000e+00 6.6947973659841153e-01 3.7541082757569588e-01  0.0000000000000000e+00 4.8184406465504137e-01 7.5100741189731801e-01  0.0000000000000000e+00 2.3829691465292507e-01 9.3958435263687423e-01  0.0000000000000000e+00 2.3698181881030408e-01 9.4448511040411265e-01  0.0000000000000000e+00 5.0506956654553925e-01 7.5233216919199108e-01  0.0000000000000000e+00 7.8387698808246842e-01 3.6723739935501187e-01  0.0000000000000000e+00 8.2847933784638950e-01 2.3857712931482492e-01  0.0000000000000000e+00 4.4265036280044839e-01 1.2997692042572739e-01  0.0000000000000000e+00 5.5536946373814296e-02 6.7146222954563392e-02  0.0000000000000000e+00 1.1558545148868550e-01 7.2309493143723563e-02  0.0000000000000000e+00 7.8855375167833461e-02 8.9302547746443181e-02  0.0000000000000000e+00 8.6193426748074037e-02 1.0233621366515042e-01  0.0000000000000000e+00 5.6785025657504051e-01 2.2795992354925695e-01  0.0000000000000000e+00 8.0954704577736358e-01 2.8897050498255800e-01  0.0000000000000000e+00 5.7451392905347221e-01 2.7083555826354794e-01  0.0000000000000000e+00 3.8541832038658450e-02 5.4283479065893447e-01  0.0000000000000000e+00 4.4238871220161641e-01 8.0262265717511083e-01  0.0000000000000000e+00 5.9137133161196986e-01 6.6528021857695885e-01  0.0000000000000000e+00 8.2981118033854639e-01 2.7842627368267364e-01  0.0000000000000000e+00 6.3224591014310050e-01 6.0391536561076720e-01  0.0000000000000000e+00 6.8159372539810703e-01 5.1013543420711205e-01  0.0000000000000000e+00 6.3267625897900548e-01 6.9562150492461672e-02  0.0000000000000000e+00 3.0670661819253719e-01 8.8877334382323681e-01  0.0000000000000000e+00 6.8087886667238473e-02 7.7383237523796344e-01  0.0000000000000000e+00 2.1850629487672742e-02 3.0400541313453233e-01  0.0000000000000000e+00 3.3273860045475256e-01 9.5559143028231860e-02  0.0000000000000000e+00 8.7248734998941746e-01 1.3507095961660454e-01  0.0000000000000000e+00 1.0065060528356912e-01 8.6880280070975624e-01  0.0000000000000000e+00 1.8628181125066473e-01 5.3910581893869873e-02  0.0000000000000000e+00 8.8849670569748673e-01 1.2491252079127402e-01  0.0000000000000000e+00 7.1517971580525486e-01 2.1566929456206799e-01  0.0000000000000000e+00 7.4203502228325591e-01 1.2954073906401947e-01  0.0000000000000000e+00 4.3139533442469284e-02 6.1146202530255189e-01  0.0000000000000000e+00 8.6380734393762748e-01 2.3047036639597177e-01  0.0000000000000000e+00 4.7367393818118504e-02 4.2598016210696277e-01  0.0000000000000000e+00 8.7562380739746559e-01 1.7439612000127039e-01  0.0000000000000000e+00 2.1380385768629365e-01 8.2337794965733646e-01  0.0000000000000000e+00 6.9984650369983004e-01 5.4208854980118115e-01  0.0000000000000000e+00 4.0458049685163533e-01 1.0928594011465570e-01  0.0000000000000000e+00 4.9040504591113768e-02 2.4042059328129750e-01  0.0000000000000000e+00 8.2206284351840664e-01 2.9687763277560930e-01  0.0000000000000000e+00 7.1506676200464736e-01 4.6993575320128855e-01  0.0000000000000000e+00 1.4203482378471702e-01 9.1606784842552347e-01  0.0000000000000000e+00 2.6446480768478213e-02 1.8019143838808496e-01  0.0000000000000000e+00 2.0046359863312274e-01 1.2317013535980072e-01  0.0000000000000000e+00 7.8174893294732495e-01 1.9403731653194520e-01  0.0000000000000000e+00 1.1852910908739014e-01 1.0323410040101609e-01  0.0000000000000000e+00 4.3825495224997617e-02 5.2313867464222286e-01  0.0000000000000000e+00 4.2502697875444823e-01 6.7849566076201573e-01  0.0000000000000000e+00 6.2177052255996546e-01 7.3804160050107051e-02  0.0000000000000000e+00 7.8748440935737063e-01 3.0402965218438294e-01  0.0000000000000000e+00 5.3355837209557622e-01 1.0271425185658925e-01  0.0000000000000000e+00 1.1171484686144888e-01 8.3003836696017297e-02  0.0000000000000000e+00 1.8134881888660687e-01 7.4765918816995680e-02  0.0000000000000000e+00 8.7723910586233600e-01 2.0185119426271528e-01  0.0000000000000000e+00 5.5847868743737850e-01 1.7575673595605415e-01  0.0000000000000000e+00 8.1012893678666309e-01 3.2189539013911223e-01  0.0000000000000000e+00 2.0561256292702915e-01 9.3535640391970509e-01  0.0000000000000000e+00 3.9188657277479715e-02 3.4223882093887575e-01  0.0000000000000000e+00 1.1285750013832072e-01 8.6951120333235388e-01  0.0000000000000000e+00 2.8361885338073539e-01 2.0419414823163878e-01  0.0000000000000000e+00 4.3096701685473846e-02 5.4291030028050291e-01  0.0000000000000000e+00 6.6958641673245423e-01 1.4279546691390119e-01  0.0000000000000000e+00 6.4493197395954188e-02 5.6388423804339527e-01  0.0000000000000000e+00 5.8146711846083288e-01 6.3815443253958126e-01  0.0000000000000000e+00 6.6720846318482296e-02 2.1459085858186830e-01  0.0000000000000000e+00 5.8862082362579149e-01 6.3031598149615631e-01  0.0000000000000000e+00 4.8453328278476468e-02 5.9572019801568166e-01  0.0000000000000000e+00 4.0694148951902820e-01 8.5156019169971497e-01  0.0000000000000000e+00 3.5259816509674563e-01 3.6089586797600620e-01  0.0000000000