<?xml version="1.0"?>
<VTKFile type="UnstructuredGrid"  version="0.1"  >
<UnstructuredGrid>
<Piece  NumberOfPoints="4940" NumberOfCells="9650">
<Points>
<DataArray  type="Float64"  NumberOfComponents="3"  format="ascii">500 250 0  0 250 0  250 500 0  250 0 0  256.8885856082646 499.9050767557906 0  263.7719401218049 499.6203791065173 0  270.6448364229772 499.1461232471188 0  277.5020553257866 498.4826693209355 0  284.3383895508592 497.6305211460281 0  291.1486476865662 496.5903258312597 0  297.9276581259182 495.3628732847843 0  304.6702729675493 493.9490956196674 0  311.3713719748657 492.3500664368026 0  318.0258664141369 490.5670000199653 0  324.6287029687753 488.6012504015818 0  331.1748675330201 486.4543103455647 0  337.6593890460416 484.1278102064655 0  344.0773432429536 481.6235166997244 0  350.4238564271474 478.9433315480048 0  356.694109139292 476.0892900492477 0  362.88333985546 473.0635595140469 0  368.9868485575419 469.8684376402048 0  375.0000003153078 466.5063507640667 0  380.9182288257928 462.9798520074548 0  386.7370398729688 459.2916193419558 0  392.4520147244077 455.444453565817 0  398.0588135356345 451.4412761437442 0  403.5531785622926 447.285127045646 0  408.9309374414144 442.9791624087773 0  414.1880064015299 438.5266521049243 0  419.3203932989752 433.9309773069245 0  424.324200661095 429.1956279150535 0  429.1956286596235 424.3241998957182 0  433.9309780058756 419.3203925397119 0  438.5266527445345 414.1880056671062 0  442.9791630130591 408.9309367076756 0  447.2851276060475 403.5531778422888 0  451.4412766621026 398.0588128303826 0  455.4444540361634 392.4520140460735 0  459.2916197786263 386.7370392045948 0  462.9798524073514 380.9182281752347 0  466.5063511234856 374.9999996927758 0  469.8684379657123 368.9868479560565 0  473.0635598144817 362.8833392617846 0  476.0892903190255 356.6941085676214 0  478.9433317963513 350.4238558609745 0  481.6235169154735 344.0773427117675 0  484.12781039012 337.6593885555221 0  486.4543105028062 331.1748670749914 0  488.601250531677 324.6287025528375 0  490.5670001317469 318.0258660188321 0  492.3500665291326 311.3713716102628 0  493.949095695951 304.6702726271575 0  495.3628733416623 297.9276578347343 0  496.5903258712341 291.1486474470129 0  497.6305211749058 284.3383893426084 0  498.4826693388848 277.502055163614 0  499.1461232580606 270.6448362909296 0  499.6203791109319 263.7719400417897 0  499.9050767571306 256.8885855596534 0  499.9050767559877 243.1114143988867 0  499.6203791069493 236.2280598860241 0  499.1461232485393 229.3551635941651 0  498.4826693235677 222.4979446979962 0  497.6305211491849 215.6616104719064 0  496.5903258357701 208.8513523404629 0  495.3628732906988 202.0723419043604 0  493.9490956264813 195.3297270628552 0  492.3500664487791 188.6286280724281 0  490.5670000344809 181.9741336371959 0  488.6012504175981 175.3712970824318 0  486.4543103623226 168.8251325157939 0  484.1278102222298 162.3406109960628 0  481.6235167152198 155.9226567951971 0  478.9433315621651 149.5761436051346 0  476.0892900516498 143.3058908657982 0  473.063559513628 137.1166601437124 0  469.8684376406648 131.0131514433083 0  466.5063507675389 124.9999996907064 0  462.9798520124137 119.0817711822745 0  459.2916193464549 113.2629601339176 0  455.4444535642773 107.5479852733717 0  451.4412761528674 101.9411864767781 0  447.2851270583545 96.44682145403524 0  442.9791624165781 91.06906256805769 0  438.5266521117469 85.81199360630404 0  433.9309773156125 80.67960671046254 0  429.1956279150353 75.67579933888632 0  424.3241998888952 70.80437133373906 0  419.3203925223282 66.06902197812161 0  414.1880056411937 61.47334723289828 0  408.9309366751728 57.0208369601728 0  403.5531778009394 52.71487236176898 0  398.058812796452 48.55872331295853 0  392.4520140187753 44.55554594490843 0  386.7370391799677 40.70838020528396 0  380.9182281475119 37.02014757560744 0  374.9999996718656 33.49364886444181 0  368.9868479340393 30.13156202237255 0  362.8833392380029 26.93644017348339 0  356.6941085456942 23.91070967062674 0  350.4238558420009 21.0566681953261 0  344.0773426899492 18.37648307566465 0  337.6593885328982 15.87218960140942 0  331.1748670549786 13.54568949032341 0  324.6287025315056 11.39874946165088 0  318.0258660010876 9.432999863235466 0  311.3713716017894 7.649933468721599 0  304.6702726190621 6.050904302234756 0  297.9276578269805 4.637126656823085 0  291.148647441857 3.409674127905504 0  284.3383893425031 2.369478825079682 0  277.502055159398 1.517330660648639 0  270.6448362875833 0.853876741662134 0  263.7719400401456 0.3796208889774277 0  256.8885855592052 0.09492324285704967 0  243.1114143979462 0.09492324403817065 0  236.2280598850882 0.3796208931023841 0  229.3551635938215 0.8538767514891958 0  222.4979446968584 1.517330676558146 0  215.6616104703111 2.369478851036291 0  208.8513523382973 3.409674164591252 0  202.0723419066374 4.637126708856528 0  195.3297270659513 6.050904372824903 0  188.628628074828 7.649933550613184 0  181.9741336377093 9.432999965373938 0  175.3712970793675 11.39874958336037 0  168.8251325057572 13.54568964112298 0  162.340610986655 15.87218978129263 0  155.9226567874317 18.37648328793418 0  149.576143602509 21.05666843898663 0  143.3058908718157 23.91070994551046 0  137.1166601505524 26.93644048291054 0  131.0131514451933 30.13156235831508 0  124.9999996848412 33.49364923584736 0  119.0817711715717 37.0201479941652 0  113.2629601211624 40.70838066187849 0  107.5479852622251 44.55554644345162 0  101.9411864693332 48.55872385260452 0  96.44682143286516 52.71487295812284 0  91.06906254351222 57.02083760363669 0  85.81199358272519 61.4733479087879 0  80.67960667988106 66.06902271253972 0  75.67579930062769 70.80437212218331 0  70.80437129287643 75.67580015310926 0  66.06902193673014 80.67960752263491 0  61.47334718684866 85.81199441168215 0  57.02083692524275 91.0690633672404 0  52.71487232786438 96.44682224262129 0  48.55872328070024 101.941187247437 0  44.55554591578033 107.5479860232332 0  40.7083801742321 113.2629608675606 0  37.02014754791168 119.0817718975441 0  33.49364883372994 125.000000381329 0  30.13156199866361 131.0131521097709 0  26.9364401549829 137.1166607985551 0  23.91070965524918 143.3058914868915 0  21.05666818346614 149.576144185037 0  18.37648306853811 155.9226573275967 0  15.8721895918909 162.3406114925245 0  13.54568948170046 168.8251329701392 0  11.39874945301878 175.3712974960928 0  9.432999857087736 181.9741340206533 0  7.649933466342702 188.6286284076045 0  6.050904301250966 195.3297273853278 0  4.637126656808988 202.0723421730917 0  3.409674127767772 208.8513525589684 0  2.369478824521138 215.6616106615248 0  1.517330660909465 222.4979448382452 0  0.8538767414496533 229.355163714981 0  0.3796208887135322 236.2280599646376 0  0.09492324266324204 243.1114144478261 0  0.0949232442452228 256.8885856095658 0  0.3796208935834784 263.7719401236316 0  0.8538767530323526 270.6448364248016 0  1.517330679476544 277.5020553295092 0  2.369478854618649 284.3383895555228 0  3.409674170191892 291.1486476952655 0  4.6371267162381 297.9276581311522 0  6.050904381420935 304.6702729724059 0  7.649933562385399 311.3713719716595 0  9.43299997979841 318.0258664133013 0  11.3987495994252 324.6287029719946 0  13.54568965885832 331.174867545904 0  15.87218979367188 337.6593890464085 0  18.37648329843151 344.0773432384132 0  21.05666844777872 350.423856417535 0  23.91070995156048 356.6941091410045 0  26.93644048988043 362.8833398632205 0  30.13156235982007 368.9868485575877 0  33.49364924138357 375.0000003247478 0  37.0201480006036 380.9182288389023 0  40.70838066758398 386.7370398875706 0  44.55554644477201 392.4520147396792 0  48.55872386086904 398.0588135419111 0  52.71487295981296 403.5531785693063 0  57.02083760525949 408.9309374584583 0  61.47334790862246 414.1880064170849 0  66.06902271205095 419.320393319588 0  70.80437211216579 424.3242006890749 0  75.67580013809859 429.195628692521 0  80.6796075127923 433.930978054209 0  85.81199439754931 438.5266528008431 0  91.06906334717917 442.9791630582355 0  96.44682221438322 447.2851276501571 0  101.9411872243843 451.441276702356 0  107.5479859945825 455.4444540643537 0  113.2629608446994 459.2916198108319 0  119.0817718768376 462.9798524393601 0  125.0000003647644 466.5063511567065 0  131.0131521012763 469.8684379967393 0  137.1166607840049 473.0635598376539 0  143.3058914748804 476.0892903390826 0  149.5761441732679 478.9433318113714 0  155.9226573130112 481.6235169255377 0  162.3406114779862 484.1278104026658 0  168.8251329570439 486.4543105138039 0  175.3712974805475 488.601250542119 0  181.9741340135204 490.5670001408953 0  188.6286284005059 492.3500665318597 0  195.3297273788229 493.9490956972913 0  202.0723421640089 495.3628733414168 0  208.8513525529672 496.5903258712308 0  215.6616106544547 497.6305211744985 0  222.4979448327038 498.4826693384772 0  229.3551637102845 499.1461232581612 0  236.2280599621369 499.6203791111485 0  243.1114144470173 499.9050767573145 0  155.2373389820306 474.8197567317462 0  25.36256300907667 153.9152755065208 0  432.3709625126712 412.6214396304305 0  6.013151705810699 246.637913163471 0  246.6379131630491 493.986848294322 0  338.6995838441862 22.68244767887072 0  477.3175523131281 338.6995838660569 0  493.9868482700757 246.6379131399102 0  246.6201155078769 6.218451882810491 0  417.6179310263282 72.7156044707053 0  102.2232990934413 445.0100869616822 0  63.66330858966404 92.20354579482142 0  391.3105220491464 50.73522820883105 0  72.79295043967942 418.0702734974704 0  448.290574428537 108.25674339002 0  402.4604651193511 440.7462829841712 0  97.55317348421397 59.11376320116034 0  136.7376477664901 33.58246472647134 0  363.3288394375288 465.6947312928271 0  44.0678766556007 381.0860953771871 0  469.6905266180034 142.3890690100806 0  22.68244791668644 338.6995843487432 0  338.699584349159 477.317552078365 0  173.389488083762 18.6681884918202 0  483.4809734778481 179.7121987795732 0  13.50237455842738 306.4709525540879 0  305.9825168523021 487.24416992
[...]
<PointData  Vectors="f_12"> 
<DataArray  type="Float64"  Name="f_12"  NumberOfComponents="3" format="ascii">5.4243620222323419e-01 3.1300325500291276e-01 6.2945746724944174e-01  5.5506307376538522e-01 1.8113124893904406e-01 7.7789426641297321e-01  5.0954476959773565e-01 6.0187140637755443e-01 1.8714625200938481e-01  4.6503112756997533e-01 1.1046219678504465e-01 2.8025220311990234e-01  5.0904986014403497e-01 5.9954223123420158e-01 1.8665886566369147e-01  5.0860293706354476e-01 5.9742162750863326e-01 1.8622138983876577e-01  5.0817628851691443e-01 5.9538314808391513e-01 1.8580577129120304e-01  5.0779077224514046e-01 5.9352919218763178e-01 1.8543207533169656e-01  5.0743656753227362e-01 5.9181534043644246e-01 1.8509053193039091e-01  5.0711447412915589e-01 5.9024838874418839e-01 1.8478099832544992e-01  5.0682381346553063e-01 5.8882751230984132e-01 1.8450278780960938e-01  5.0656217306879359e-01 5.8754285042665144e-01 1.8425319802423970e-01  5.0633143241844702e-01 5.8640537724269759e-01 1.8403368024348166e-01  5.0613294786103002e-01 5.8542362778153367e-01 1.8384550403579211e-01  5.0598240763951108e-01 5.8467655271588292e-01 1.8370323413200890e-01  5.0582705658204830e-01 5.8390471162216318e-01 1.8355615855531751e-01  5.0574846687888286e-01 5.8351277333636453e-01 1.8348226081375449e-01  5.0567167992809481e-01 5.8313014031497423e-01 1.8340973082572962e-01  5.0563188943207815e-01 5.8293166341346025e-01 1.8337221969861567e-01  5.0561949375423421e-01 5.8287016317205620e-01 1.8336036963530955e-01  5.0563166767900791e-01 5.8293154921073020e-01 1.8337118960763957e-01  5.0569082874880078e-01 5.8322703108307039e-01 1.8342685908233466e-01  5.0578285504643095e-01 5.8368614715925871e-01 1.8351369393648145e-01  5.0588636102668294e-01 5.8420216049018714e-01 1.8361077879622567e-01  5.0602330070503332e-01 5.8488351442569819e-01 1.8373969137750412e-01  5.0620285736608861e-01 5.8577381846421950e-01 1.8390950601539494e-01  5.0642836593400742e-01 5.8688815851830300e-01 1.8412350164050226e-01  5.0666440215016872e-01 5.8805088909344816e-01 1.8434767195076701e-01  5.0693176009756824e-01 5.8936241209596751e-01 1.8460240080966328e-01  5.0725448027022479e-01 5.9093750118041111e-01 1.8491147990339810e-01  5.0759548106864472e-01 5.9259343653659624e-01 1.8523924867194064e-01  5.0797757824100565e-01 5.9443737031165089e-01 1.8560827991296730e-01  5.0839780739301133e-01 5.9645267969495297e-01 1.8601635298454644e-01  5.0884456299290381e-01 5.9858036365010370e-01 1.8645204493371470e-01  5.0935162065475525e-01 6.0097537408740620e-01 1.8694979585910934e-01  5.0989332035328816e-01 6.0351284579367614e-01 1.8748511424106321e-01  5.1045786339783183e-01 6.0613392877709016e-01 1.8804567471446379e-01  5.1108447865040851e-01 6.0901349867371934e-01 1.8867283426192866e-01  5.1177702965241811e-01 6.1216055725267415e-01 1.8937230121625906e-01  5.1250156054066776e-01 6.1541487223758695e-01 1.9010936325598318e-01  5.1325644036044915e-01 6.1876390922634938e-01 1.9088306643152581e-01  5.1408150839486988e-01 6.2237415978619837e-01 1.9173684787551393e-01  5.1497905536591482e-01 6.2624466804487611e-01 1.9267418170786435e-01  5.1592346035511760e-01 6.3025310954778035e-01 1.9367036693847831e-01  5.1693983457777026e-01 6.3449277984883778e-01 1.9475408834409452e-01  5.1802262952681255e-01 6.3892332437612520e-01 1.9592176318567622e-01  5.1916954524267789e-01 6.4353301694947851e-01 1.9717182315492518e-01  5.2039753929466426e-01 6.4837018582570805e-01 1.9851557994985117e-01  5.2174061782579328e-01 6.5347228035504579e-01 2.0001643165232724e-01  5.2307612688880556e-01 6.5838506965752230e-01 2.0165919592758752e-01  5.2430555993965178e-01 6.6300751025343174e-01 2.0316826992753342e-01  5.2525481463909673e-01 6.6721581442809030e-01 2.0270647745755305e-01  5.3090322212067032e-01 6.9296292941579296e-01 2.0660347098904638e-01  5.5670881576558062e-01 7.4846544294595352e-01 2.5049540762164985e-01  6.0543950551161396e-01 7.2108924508354966e-01 4.0323361049310302e-01  6.1460063120465291e-01 4.6274633822900485e-01 7.4717115586249228e-01  5.3625478921140057e-01 1.6518953112821849e-01 7.0903754047017831e-01  4.7999233984998474e-01 1.6545357323460091e-01 3.5705752973103733e-01  4.8814256553141838e-01 3.7954267678914511e-01 2.5818068063301758e-01  5.3844250098263713e-01 5.6506187101445227e-01 3.7317085380252635e-01  5.6378959895515668e-01 2.1532419100660419e-01 7.9472341253477707e-01  6.2165317853579150e-01 3.9404044432868945e-01 8.1737057809363400e-01  6.4432836096146606e-01 5.9669009829164021e-01 6.2869409611042049e-01  6.4525872216798796e-01 6.7794655686693717e-01 5.1926592823636264e-01  6.4388818627792044e-01 5.8763458031162696e-01 6.3896728490337595e-01  6.3191828817816265e-01 4.3353109046742733e-01 7.9000801923423725e-01  6.0293635557130809e-01 2.7989878633154158e-01 8.5965408426216505e-01  5.5965956255936455e-01 1.5881163403596943e-01 7.9314451726844670e-01  5.1993492991722956e-01 1.1283903423352160e-01 6.3158471261855542e-01  5.3064063833773256e-01 2.1599150227805525e-01 6.4847424089241179e-01  5.4375341056453408e-01 4.7779361861139236e-01 4.8266289926301698e-01  4.8716012165790251e-01 4.1111768660634873e-01 2.2148103215979037e-01  4.7527451599578108e-01 3.6794978882696805e-01 1.8696722234368929e-01  5.4541240795227541e-01 5.3981772858475285e-01 4.2947207858648279e-01  5.9800480457345628e-01 4.3627464007185895e-01 7.2786732066128568e-01  6.2373350504159797e-01 4.1483346776153018e-01 7.9522977366179692e-01  6.4125475088042616e-01 4.7893974517957094e-01 7.5335920277613477e-01  6.4932924955830185e-01 5.4282010553730053e-01 6.9234135238666483e-01  6.5124344123637501e-01 5.6481711117560740e-01 6.6838135065835580e-01  6.4821060354835358e-01 5.2981233269303551e-01 7.0632143813580683e-01  6.4374313279170914e-01 4.8283901146935576e-01 7.5176845409431658e-01  6.4123089415021128e-01 4.5917042968838773e-01 7.7211638445822484e-01  6.4171763050201436e-01 4.6303109979227780e-01 7.6889392372995735e-01  6.4474563130193296e-01 4.8975708904296472e-01 7.4588465204332888e-01  6.4913005580836580e-01 5.2464862152535618e-01 7.1190788890360601e-01  6.4648443297220437e-01 4.9799048598556744e-01 7.3628019540238632e-01  6.1382088352818276e-01 3.2323971538085833e-01 8.5477517222336896e-01  5.4721901686733165e-01 1.3646392313555616e-01 7.5704804778600321e-01  4.9171194540813035e-01 8.6996666188032534e-02 4.6765430578502504e-01  4.6523453642598966e-01 1.1859588278191291e-01 2.7801378572339663e-01  4.6436462799659384e-01 2.3901402194561694e-01 2.0095293078337109e-01  4.9221169033754919e-01 4.8022020657667736e-01 2.0301181807866606e-01  5.4283486289460925e-01 6.9569825083559966e-01 2.6025499951503023e-01  5.9538326098514704e-01 7.3854733710828313e-01 3.6605445361956890e-01  6.3040511179211489e-01 6.7122343761714887e-01 5.1388653716176003e-01  6.4066585588116443e-01 5.5063347280553021e-01 6.7733609911790960e-01  6.2670776184506294e-01 3.9792115902588704e-01 8.1400429699462606e-01  5.9271809174797963e-01 2.4267987807444261e-01 8.5743436681737262e-01  5.5164930424486680e-01 1.3666121916794818e-01 7.7303968068623796e-01  5.1857774601839357e-01 9.3618077597915864e-02 6.2511045890759520e-01  4.9672320708758383e-01 8.1923405526865306e-02 5.0055292331267465e-01  4.8758099578147390e-01 7.9338488549140926e-02 4.4486656336183872e-01  4.8555937749388295e-01 7.9371381961506282e-02 4.3187895490538697e-01  4.9144380217515077e-01 7.9416169424793626e-02 4.6915159005254065e-01  5.0777606739724956e-01 8.6456344454093392e-02 5.6589311276279153e-01  5.3850588696983204e-01 1.1769693460955064e-01 7.1929017307675780e-01  5.8128204180154641e-01 2.0835357461877396e-01 8.4699374524316151e-01  6.2064460792459797e-01 3.6888991341430660e-01 8.2959327579806552e-01  6.3814460923550853e-01 5.4220508904028308e-01 6.8410446515828682e-01  6.2495652712091276e-01 6.7733867990780117e-01 4.9890933655002379e-01  5.8191163487908193e-01 7.3696292311418865e-01 3.3750710874995871e-01  5.2280438568222731e-01 6.3523426750001522e-01 2.3346573889750588e-01  4.7786789029601867e-01 3.7911227863434804e-01 1.9109524480643322e-01  4.6267329763438270e-01 1.7871698951253065e-01 2.2624632112040047e-01  4.7203594569826585e-01 9.2478279065634827e-02 3.3594828093366341e-01  4.7772110728402928e-01 7.7738259631725579e-02 3.8161881021125460e-01  4.5925564074656283e-01 1.8049486779371265e-01 2.0273556003462692e-01  4.6140893052922971e-01 2.5646382599454770e-01 1.7070619719082647e-01  4.6926750945263040e-01 3.3202124488774976e-01 1.6940441699045383e-01  4.6769346935069700e-01 3.1534538069285500e-01 1.7003916323753110e-01  4.6070416580355839e-01 2.2213705573202250e-01 1.8773702174490298e-01  4.6524658582770484e-01 1.3017960492607847e-01 2.7101006762577234e-01  4.8887795680034202e-01 8.4322403189816458e-02 4.4775984632702670e-01  5.0060945279508695e-01 7.9867334002184348e-02 5.2325367559631397e-01  4.7695061006233136e-01 9.6182257478904035e-02 3.6490923573534745e-01  4.6713696710987546e-01 1.4362899935734444e-01 2.7901511118167083e-01  5.0132704301295150e-01 1.8491004006049330e-01 4.9186007180301838e-01  5.7403514107866416e-01 3.1146464524491607e-01 7.7383790989806645e-01  5.8836436187677066e-01 5.1821168327593226e-01 6.1469812015206005e-01  5.2156918427831533e-01 4.4047359444664747e-01 4.1189372801736518e-01  4.8077663964451400e-01 1.5465593839578243e-01 3.6375422277918856e-01  5.0469093356132477e-01 8.4465357802514338e-02 5.4926842672516019e-01  4.9296019052443502e-01 8.5289656884076970e-02 4.7400580927305164e-01  4.6542885593348060e-01 1.1791684353973217e-01 2.7946275961246075e-01  4.6092999734904150e-01 2.0758876055649311e-01 1.9727471307827305e-01  4.7862489054347462e-01 3.9724666667566494e-01 1.8399550006793616e-01  5.1949763073094080e-01 6.2723225817854766e-01 2.2273620576336781e-01  5.7068606495029794e-01 7.3895257758594002e-01 3.0506052758593766e-01  6.1339333055812717e-01 7.2312690978722383e-01 4.2026734925776699e-01  6.3741571239017847e-01 6.4631893550635244e-01 5.5445815069159576e-01  6.4240106101465499e-01 5.4294869612189722e-01 6.8506069074077180e-01  6.3351294545988890e-01 4.3410620222971152e-01 7.8723084777608598e-01  6.1794415445414597e-01 3.3899733168242224e-01 8.4496761283464261e-01  6.0327683087546202e-01 2.7410308146948759e-01 8.6236683790004143e-01  5.9458428855218293e-01 2.4291916991777385e-01 8.6038660489625685e-01  5.9442513258384677e-01 2.4290537014232619e-01 8.5914763606248712e-01  6.0224762403818888e-01 2.7174412794037645e-01 8.6049955453844917e-01  6.1664715446799878e-01 3.3289379273790365e-01 8.4641296729229398e-01  6.3188623568648095e-01 4.1841062706496340e-01 8.0022270833516329e-01  6.4384425438032178e-01 5.2427661756635902e-01 7.1146492428362618e-01  6.4263512295361069e-01 6.2268090357884787e-01 5.8912303675148625e-01  6.2712411225128206e-01 7.0204820815122082e-01 4.6880214977907769e-01  5.9478453672620590e-01 7.4607829283566218e-01 3.5542090541071480e-01  5.4921558207602006e-01 7.1185304747753941e-01 2.6585662454470793e-01  5.0172642085604402e-01 5.4309148736518786e-01 2.0520123869692689e-01  4.6909210416628400e-01 3.0347189696347687e-01 1.8829438941975171e-01  4.6093428965568761e-01 1.4822003634536959e-01 2.3301290515103401e-01  4.7364773726883769e-01 8.8289866727590038e-02 3.4816602162602961e-01  4.8955394304636285e-01 7.6839900148050574e-02 4.5388751550030826e-01  4.8802568345006814e-01 8.0361356470711950e-02 4.4007031958784321e-01  4.8015628266051857e-01 8.2764917073961164e-02 3.8876280462476065e-01  4.7656548408410560e-01 8.3896412764683181e-02 3.6545775670177622e-01  4.7445001894503536e-01 8.5442643566249532e-02 3.5109510453057047e-01  4.7181050917509720e-01 8.8175796462148473e-02 3.3276167732990641e-01  4.6816052370481032e-01 9.3763179007754077e-02 3.0621162456447709e-01  4.6521063224508097e-01 1.0022234327196106e-01 2.8368191904915041e-01  4.6413177363614494e-01 1.0353857337213464e-01 2.7516663341730702e-01  4.6818886570337093e-01 9.7570312373755241e-02 3.0570196096287056e-01  4.9013873121655210e-01 9.0746118963568878e-02 4.5378514007840243e-01  5.4361985288767223e-01 1.2899200066204641e-01 7.3440532232704037e-01  5.7749664207104590e-01 1.9088493278678334e-01 8.3234727196592861e-01  5.6025663080183796e-01 1.6168133470349566e-01 7.9023143996270606e-01  5.8340090003970890e-01 4.0129472704872221e-01 7.2235650768063597e-01  5.4742612375884736e-01 5.7603561929312297e-01 3.9861784349848406e-01  4.7363264540582911e-01 3.4403064631468222e-01 1.9509916482651732e-01  4.7035858615943038e-01 3.2359327843266222e-01 1.8827763986413421e-01  5.4396670939113545e-01 5.9064214358446576e-01 3.7024366142696535e-01  5.9391635390366682e-01 4.9645365781201345e-01 6.5839287522952294e-01  5.3670839323481323e-01 2.1563617873588789e-01 6.8446795680362815e-01  4.8114689336979277e-01 1.2453156878635899e-01 3.8710955323791046e-01  4.8192167241976319e-01 9.2146962632830051e-02 4.0203803289855611e-01  5.1530776891953189e-01 1.0026187656185759e-01 6.0391917315459576e-01  5.7537867628722439e-01 2.0680166988935753e-01 8.3990560043395535e-01  6.3430130136881469e-01 4.5874881443971000e-01 7.7045701342118322e-01  6.4977632176845834e-01 5.6255224755126754e-01 6.6726531168834613e-01  6.2302312307374175e-01 4.0379323492736363e-01 8.0574881208400362e-01  5.6962509089370472e-01 2.4350430484276092e-01 8.0217283108235671e-01  5.5635805772012414e-01 3.9303355434750681e-01 6.2437474548161576e-01  5.2204614275537786e-01 5.1952004859569456e-01 3.3013569363440343e-01  4.7682988471715232e-01 2.7713052079761313e-01 2.6289838497172985e-01  4.8670548675321024e-01 1.3370406964130388e-01 4.2141053178714954e-01  5.5810027487266645e-01 1.9820181867329342e-01 7.8945612516445740e-01  6.2565273177317204e-01 5.2330424902588268e-01 6.9715155556782316e-01  6.1109039025557699e-01 7.3504702922118403e-01 3.9670628270271002e-01  5.7301908142947511e-01 7.7073033186785700e-01 2.7248370402569649e-01  5.5272525330847899e-01 7.4578683045663152e-01 2.3603140846527626e-01  5.4758067473528294e-01 7.3003851791209950e-01 2.3177832664505316e-01  5.4608227656132691e-01 7.2591891610907144e-01 2.3104203520664560e-01  5.4428958354674895e-01 7.2184761862041957e-01 2.2841522922629434e-01  5.4240801909463698e-01 7.1747220272782719e-01 2.2568734915241681e-01  5.4050741774775057e-01 7.1275094444395315e-01 2.2312831379102571e-01  5.3868490378470846e-01 7.0798109242583263e-01 2.2071215293114602e-01  5.3693960879038372e-01 7.0322695540966462e-01 2.1843178353781109e-01  5.3525702786755525e-01 6.9846671685868356e-01 2.1626641410791941e-01  5.3363608111534977e-01 6.9371047959595256e-01 2.1421187801309802e-01  5.3207132221324793e-01 6.8895686099037234e-01 2.1225767731785200e-01  5.3055501303746044e-01 6.8419881346870148e-01 2.1038988577223705e-01  5.2911258619768320e-01 6.7953273348130505e-01 2.0863677794237190e-01  5.2772945268517268e-01 6.7492694827257516e-01 2.0697834068496485e-01  5.2637426692134093e-01 6.7028975993752438e-01 2.0537337859096128e-01  5.2508420468020112e-01 6.6575960909725151e-01 2.0386457444667744e-01  5.2385442010472705e-01 6.6133356461328763e-01 2.0244437316469011e-01  5.2266569848519850e-01 6.5695613420711185e-01 2.0108697590522143e-01  5.2152710332748675e-01 6.5267074019797955e-01 1.9980076705863431e-01  5.2042854387972326e-01 6.4844914922286612e-01 1.9857446375310522e-01  5.1938892354924093e-01 6.4437521289929256e-01 1.9742464379605654e-01  5.1838501422683891e-01 6.4036754085952374e-01 1.9632705300594527e-01  5.1742964654137136e-01 6.3648597487349201e-01 1.9529266809423906e-01  5.1651243224912047e-01 6.3269673741537913e-01 1.9430825690364695e-01  5.1562971798088697e-01 6.2899268310955081e-01 1.9336946443501357e-01  5.1480176609763639e-01 6.2546588833738015e-01 1.9249875641135081e-01  5.1401724401222382e-01 6.2207627048119885e-01 1.9168001041754709e-01  5.1325861911013648e-01 6.1875597132128468e-01 1.9089464476225618e-01  5.1254699654474389e-01 6.1560164422300545e-01 1.9016399979287807e-01  5.1187852670910750e-01 6.1260376248649151e-01 1.8948366883298445e-01  5.1124312600771304e-01 6.0972243198725140e-01 1.8884096131546854e-01  5.1064139393357921e-01 6.0696650894441706e-01 1.8823689038278804e-01  5.1008236087588432e-01 6.0438042803932968e-01 1.8767917945433185e-01  5.2111772119647171e-01 6.5110483986405532e-01 1.9934455320586214e-01  4.7504223581173977e-01 8.9015725400685655e-02 3.5559673520991891e-01  5.0929082359078581e-01 6.0068759425763074e-01 1.8689228586853857e-01  5.4743891010422219e-01 1.4585775898599707e-01 7.5185710952764884e-01  5.0997029747735501e-01 6.0385771531769683e-01 1.8756963286797568e-01  4.7528678326655616e-01 1.0553858871997381e-01 3.4989683443830805e-01  5.2003128064516013e-01 6.4691938083762912e-01 1.9812157061094476e-01  5.4337071366505729e-01 2.1921278233583535e-01 7.1325992620609779e-01  4.6301071742735844e-01 1.8882370209835134e-01 2.2196104284136539e-01  4.7144106223073673e-01 1.1109363864531856e-01 3.2191851918833425e-01  5.3304934170781149e-01 6.9194247898970740e-01 2.1347863122205687e-01  5.6979326156350618e-01 1.9116306273561071e-01 8.1806839830737943e-01  6.2514549200236913e-01 6.6118105108155045e-01 5.2292509192534620e-01  5.4339488619132981e-01 7.1980168682068013e-01 2.2714942147706710e-01  6.4056983472372764e-01 4.5423049263210258e-01 7.7613818497767750e-01  5.0694334549526543e-01 5.8941641552120816e-01 1.8461583142056370e-01  6.3238796780335726e-01 5.0540200248287737e-01 7.2194887272842734e-01  4.7305280003467504e-01 1.0889473273072296e-01 3.3271459220054506e-01  5.0582994869300824e-01 5.8391937687561657e-01 1.8355998844776023e-01  5.8121333964310917e-01 2.8373278911905081e-01 8.2144275625579699e-01  6.3049423031918039e-01 4.2315021290215299e-01 7.9531825004122869e-01  6.3896710429958170e-01 4.8435718663389965e-01 7.5260117053900766e-01  5.0585702665662080e-01 5.8405191721301064e-01 1.8358616026060631e-01  5.4701368761832925e-01 2.3433626539499136e-01 7.2385668763894984e-01  5.4665721458624383e-01 3.8925992467979836e-01 5.8615445886442152e-01  4.8210904226954210e-01 9.5819092905884445e-02 4.0358528586628012e-01  5.0663475934400592e-01 5.8789765559184148e-01 1.8432425472271755e-01  5.1536207694091751e-01 6.2785714348391408e-01 1.9308949387225027e-01  4.7107865680006833e-01 8.9296534075406206e-02 3.2746440997017756e-01  6.3225403956120074e-01 5.5712607486130028e-01 6.6182714152806388e-01  5.5553581305222599e-01 7.4030678146277706e-01 2.5076961081080612e-01  5.1292107663916142e-01 6.1727711273370578e-01 1.9054169376570126e-01  4.7502535610620922e-01 1.0516216816594869e-01 3.4740893385625676e-01  6.1878582214495126e-01 3.5193896278662612e-01 8.3920309921382885e-01  5.0442064927832275e-01 4.8900947992705845e-01 2.6636333297789611e-01  5.0776626871998698e-01 5.9340867012419796e-01 1.8541030730762095e-01  5.4549199378062208e-01 1.3956645768904496e-01 7.4199512418890523e-01  5.8826018562454430e-01 7.2030161595796471e-01 3.7333743008809472e-01  5.1235282116970837e-01 6.1473232776849795e-01 1.8996796233918190e-01  5.2592684202762263e-01 6.6873330698077971e-01 2.0485030434858392e-01  4.8016744812174433e-01 9.0029456717914694e-02 3.8863253036871531e-01  4.7270063786660127e-01 3.1747745119177473e-01 2.0167451586452634e-01  4.9742310036871934e-01 1.4650601146493542e-01 4.8424333313243056e-01  5.0634053876833052e-01 5.8645134734882010e-01 1.8404295350807523e-01  5.2375074082714645e-01 6.6097029791085549e-01 2.0208248032311271e-01  4.8649536740669147e-01 4.3270425649045668e-01 2.0092454747651439e-01  5.2989247246716498e-01 1.1756262739493578e-01 6.7736080076073568e-01  6.4560880490012529e-01 6.5798604701663077e-01 5.5116338472914250e-01  6.2301960922161570e-01 3.6523371998290910e-01 8.4031843838497522e-01  5.1804478421376865e-01 6.3898888907202911e-01 1.9595979505496716e-01  5.1100920441830777e-01 6.0866701849956983e-01 1.8860075682136490e-01  5.5463850379664537e-01 7.4643222100154660e-01 2.4239921437948614e-01  5.6209957078455552e-01 7.1068225932255047e-01 3.0972378940225515e-01  4.9465960379565155e-01 4.2843177486197936e-01 2.5778156727424772e-01  4.7964600623587905e-01 8.2781004246224851e-02 3.8558610290378614e-01  5.1566419058545609e-01 6.2915578742504463e-01 1.9339918037224904e-01  5.3799713871