<?xml version="1.0"?>
<VTKFile type="UnstructuredGrid"  version="0.1"  >
<UnstructuredGrid>
<Piece  NumberOfPoints="7288" NumberOfCells="14083">
<Points>
<DataArray  type="Float64"  NumberOfComponents="3"  format="ascii">239.8 188 0  250.2 180 0  258.2 172.4 0  257 169.4 0  259.9 157.4 0  258.7 150.3 0  261 143.5 0  251.7 144.4 0  250 138.7 0  247 138.1 0  245.2 130.8 0  247.3 126.4 0  242.7 118.6 0  231.2 107.7 0  226 102.4 0  226.5 93.90000000000001 0  224.5 91.19999999999999 0  224.5 84.09999999999999 0  234.5 73.80000000000001 0  228.4 68.90000000000001 0  230 70 0  233.4 68 0  222.7 61.5 0  220.6 45.5 0  223.4 49.40000000000001 0  224 47 0  221.8 43.09999999999999 0  221 38.40000000000001 0  219.5 38.5 0  219.4 41.69999999999999 0  217.1 36.90000000000001 0  209.7 36 0  209.5 31.69999999999999 0  205.1 29.90000000000001 0  201.5 30.40000000000001 0  199.2 38.69999999999999 0  201.8 41.40000000000001 0  194.8 53.80000000000001 0  196.1 57.69999999999999 0  193 59 0  191.4 66.09999999999999 0  193.5 66.5 0  194.1 64.40000000000001 0  195.6 64.69999999999999 0  195.4 72.40000000000001 0  199.5 77.30000000000001 0  197.7 86.90000000000001 0  200.6 87.5 0  201.5 91 0  198 94.80000000000001 0  198.6 100 0  197.3 105.4 0  198 109.5 0  197 112.7 0  198.3 116.1 0  201.3 122 0  207.2 121 0  208.1 126.7 0  205.6 127.9 0  209.1 134.9 0  210.9 144.4 0  210.1 147.9 0  213 148.4 0  215.4 149.3 0  215.1 152.8 0  219.9 159.7 0  220.3 163.2 0  218.7 164.9 0  219.9 166.7 0  221.9 169.7 0  220 170.3 0  224.9 174.7 0  229.8 177.4 0  229.7 181 0  228 172.9 0  239 178 0  240.4 180 0  239 181.5 0  241.2 185.9 0  242.95 187.99 0  240.5875 187.9975 0  241.375 187.995 0  242.1625 187.9925 0  243.6090909090879 187.2636363636397 0  244.2681818181765 186.5372727272785 0  244.9272727272692 185.810909090913 0  245.5863636363531 185.0845454545571 0  246.245454545445 184.3581818181923 0  246.9045454545351 183.6318181818295 0  247.5636363636303 182.9054545454612 0  248.2227272727197 182.1790909090992 0  248.8818181818179 181.4527272727275 0  249.5409090909066 180.7263636363664 0  250.8666666666961 179.3666666666387 0  251.5333333334033 178.7333333332668 0  252.2000000000994 178.0999999999055 0  252.8666666668011 177.466666666539 0  253.5333333335083 176.8333333331671 0  254.2000000002044 176.1999999998058 0  254.8666666669005 175.5666666664445 0  255.5333333336077 174.9333333330727 0  256.2000000002685 174.2999999997449 0  256.8666666668457 173.6666666664966 0  257.5333333334283 173.033333333243 0  257.9000000000077 171.6500000000191 0  257.6000000000015 170.9000000000038 0  257.2999999999954 170.1499999999885 0  257.2230769230778 168.4769230769195 0  257.4461538461543 167.5538461538442 0  257.6692307692309 166.6307692307688 0  257.8923076923074 165.7076923076935 0  258.115384615384 164.7846153846181 0  258.3384615384605 163.8615384615427 0  258.5615384615395 162.9384615384572 0  258.784615384616 162.0153846153819 0  259.0076923076926 161.0923076923065 0  259.2307692307691 160.1692307692311 0  259.4538461538457 159.2461538461558 0  259.6769230769222 158.3230769230804 0  259.750000000001 156.512500000006 0  259.6000000000014 155.6250000000082 0  259.4500000000029 154.7375000000176 0  259.3000000000018 153.8500000000108 0  259.1500000000007 152.962500000004 0  259.0000000000004 152.0750000000026 0  258.849999999999 151.187499999994 0  258.9875000000052 149.4499999999846 0  259.275000000002 148.5999999999941 0  259.5624999999954 147.7500000000135 0  259.849999999995 146.900000000015 0  260.1374999999945 146.0500000000164 0  260.4249999999913 145.2000000000259 0  260.7124999999948 144.3500000000154 0  260.0700000000398 143.5899999999961 0  259.1400000000573 143.6799999999944 0  258.2100000000351 143.7699999999966 0  257.2800000000262 143.8599999999975 0  256.350000000011 143.9499999999989 0  255.4199999999881 144.0400000000011 0  254.4899999999726 144.1300000000026 0  253.5599999999944 144.2200000000005 0  252.6300000000009 144.3099999999999 0  251.4166666666658 143.4499999999971 0  251.1333333333388 142.5000000000182 0  250.8500000000015 141.5500000000051 0  250.5666666666612 140.5999999999818 0  250.2833333333342 139.6500000000029 0  249.2500000000005 138.5500000000001 0  248.5000000000011 138.4000000000002 0  247.7499999999995 138.2499999999999 0  246.7750000000005 137.1875000000023 0  246.5500000000021 136.2750000000085 0  246.3250000000036 135.3625000000147 0  246.1000000000042 134.450000000017 0  245.8750000000022 133.5375000000088 0  245.650000000003 132.6250000000124 0  245.4250000000046 131.7125000000187 0  245.619999999996 129.9200000000084 0  246.0399999999992 129.0400000000017 0  246.4599999999987 128.1600000000028 0  246.8800000000001 127.2799999999997 0  246.8399999999988 125.6199999999979 0  246.3799999999984 124.8399999999973 0  245.9199999999991 124.0599999999985 0  245.4600000000036 123.2800000000062 0  245.0000000000049 122.5000000000082 0  244.5400000000036 121.7200000000062 0  244.0800000000033 120.9400000000056 0  243.6200000000016 120.1600000000027 0  243.1600000000012 119.3800000000021 0  241.9812499999996 117.9187499999997 0  241.2625000000007 117.2375000000007 0  240.5437500000017 116.5562500000017 0  239.8250000000041 115.875000000004 0  239.1062500000066 115.1937500000063 0  238.3875000000076 114.5125000000072 0  237.6687500000087 113.8312500000082 0  236.9500000000083 113.1500000000079 0  236.231250000008 112.4687500000076 0  235.512500000009 111.7875000000085 0  234.7937500000045 111.1062500000043 0  234.0750000000042 110.4250000000039 0  233.3562500000066 109.7437500000062 0  232.6375000000021 109.062500000002 0  231.9187500000031 108.381250000003 0  230.5500000000004 107.0375000000004 0  229.9000000000021 106.3750000000021 0  229.2500000000038 105.7125000000039 0  228.6000000000041 105.0500000000042 0  227.9500000000018 104.3875000000018 0  227.2999999999952 103.7249999999951 0  226.6500000000024 103.0625000000024 0  226.0555555555555 101.4555555555556 0  226.1111111111111 100.5111111111111 0  226.1666666666667 99.56666666666668 0  226.2222222222222 98.62222222222223 0  226.2777777777778 97.67777777777778 0  226.3333333333333 96.73333333333335 0  226.3888888888889 95.78888888888889 0  226.4444444444445 94.84444444444446 0  226 93.22499999999999 0  225.5000000000026 92.55000000000358 0  225.0000000000026 91.87500000000358 0  224.5 90.31250000000068 0  224.5 89.4250000000097 0  224.5 88.53750000001317 0  224.5 87.65000000001388 0  224.5 86.76250000001457 0  224.5 85.87500000001248 0  224.5 84.9874999999993 0  225.1666666666659 83.41333333333409 0  225.8333333333319 82.72666666666818 0  226.4999999999978 82.04000000000228 0  227.1666666666649 81.35333333333514 0  227.8333333333301 80.66666666667 0  228.4999999999942 79.980000000006 0  229.1666666666601 79.2933333333401 0  229.8333333333316 78.60666666666847 0  230.4999999999975 77.92000000000257 0  231.1666666666644 77.23333333333572 0  231.8333333333295 76.54666666667057 0  232.4999999999972 75.86000000000287 0  233.1666666666681 75.17333333333181 0  233.8333333333368 74.48666666666306 0  233.7499999999995 73.16666666666629 0  233.0000000000018 72.53333333333488 0  232.2500000000014 71.90000000000116 0  231.5000000000009 71.26666666666743 0  230.7500000000005 70.63333333333372 0  229.233333333333 68.75000000000006 0  230.0666666666665 68.60000000000004 0  230.8999999999995 68.45000000000009 0  231.7333333333325 68.30000000000015 0  232.566666666667 68.14999999999995 0  232.5499999999897 68.50000000000607 0  231.7 69 0  230.8500000000103 69.49999999999393 0  227.8300000000008 68.16000000000106 0  227.2600000000064 67.42000000000837 0  226.6900000000077 66.68000000001001 0  226.1200000000024 65.94000000000314 0  225.5500000000108 65.20000000001409 0  224.9800000000098 64.46000000001268 0  224.4100000000007 63.72000000000098 0  223.8399999999971 62.97999999999621 0  223.2699999999993 62.23999999999915 0  222.753846153846 60.56923076923239 0  222.8076923076921 59.63846153846478 0  222.8615384615381 58.70769230769827 0  222.9153846153842 57.77692307693071 0  222.9692307692302 56.84615384616315 0  223.0230769230761 55.91538461539836 0  223.0769230769224 54.98461538462665 0  223.1307692307688 54.05384615385345 0  223.184615384615 53.12307692308312 0  223.2384615384611 52.19230769231556 0  223.2923076923071 51.26153846154906 0  223.3461538461533 50.33076923077847 0  222.8400000000024 48.62000000000327 0  222.2800000000047 47.84000000000661 0  221.7200000000005 47.06000000000071 0  221.1600000000003 46.28000000000039 0  221.4500000000116 45.87500000000512 0  222.3 46.25 0  223.1499999999884 46.62499999999488 0  223.5600000000055 46.22000000000981 0  223.1199999999987 45.43999999999767 0  222.6800000000061 44.66000000001075 0  222.2399999999969 43.8799999999944 0  221.6400000000004 42.16000000000253 0  221.4800000000009 41.22000000000548 0  221.3200000000014 40.28000000000801 0  221.1600000000009 39.34000000000556 0  220.25 38.45 0  219.4749999999999 39.30000000000165 0  219.45 40.09999999999999 0  219.425 40.90000000000112 0  219.0166666666641 40.89999999999463 0  218.6333333333375 40.10000000000875 0  218.2500000000016 39.30000000000339 0  217.8666666666635 38.49999999999351 0  217.483333333337 37.70000000000762 0  216.1750000000165 36.78750000000201 0  215.2500000000275 36.67500000000335 0  214.3250000000385 36.56250000000469 0  213.4000000000277 36.45000000000337 0  212.4750000000059 36.33750000000072 0  211.5499999999838 36.22499999999803 0  210.6249999999835 36.11249999999799 0  209.6600000000001 35.14000000000318 0  209.6200000000001 34.28000000000268 0  209.5800000000001 33.42000000000284 0  209.5399999999998 32.55999999999681 0  208.6200000000117 31.34000000000476 0  207.7400000000138 30.98000000000564 0  206.8600000000162 30.62000000000662 0  205.9800000000174 30.26000000000711 0  204.2000000000054 30.02499999999925 0  203.2999999999946 30.15000000000076 0  202.3999999999945 30.27500000000076 0  201.2444444444438 31.32222222222468 0  200.9888888888895 32.24444444
[...]
<PointData  Vectors="f_12"> 
<DataArray  type="Float64"  Name="f_12"  NumberOfComponents="3" format="ascii">4.8469531697723872e-01 8.0457395027572778e-02 4.1901559168016811e-01  4.8469531759018175e-01 8.0457393299762980e-02 4.1901559522594312e-01  4.8469530613027573e-01 8.0457379852793082e-02 4.1901552681381221e-01  4.8469524763244248e-01 8.0457345669664268e-02 4.1901517665998000e-01  4.8468973977000812e-01 8.0455884860741095e-02 4.1898190384467110e-01  4.8465018029131818e-01 8.0450860735205937e-02 4.1874137206394157e-01  4.8464586769890966e-01 8.0449898492023386e-02 4.1871529610497288e-01  4.8359844080481518e-01 8.0573607357581123e-02 4.1220976215524646e-01  4.7993804507423349e-01 8.2216274988844096e-02 3.8863061540434696e-01  4.7587177738489261e-01 8.7262471975922185e-02 3.6021620926468600e-01  4.6218985098079102e-01 1.5921113631015818e-01 2.3327000836939885e-01  4.6242505049187188e-01 2.2334259457717173e-01 1.9621605790528210e-01  4.8798468627719371e-01 4.4514823273154219e-01 1.9707247612329462e-01  5.3541278712489371e-01 6.9467691187795200e-01 2.2024462021743746e-01  5.2649636047582427e-01 6.6813321935322889e-01 2.0778000074432276e-01  5.1268166262719039e-01 6.1713907191625550e-01 1.8997918254092153e-01  5.1233102251402129e-01 6.1565028218648599e-01 1.8949775601084615e-01  5.1711918727798867e-01 6.3522876639072268e-01 1.9505187063870136e-01  5.1924847439491983e-01 6.4439556260669972e-01 1.9695789499306884e-01  5.2297659406786867e-01 6.5791647297611300e-01 2.0168518832593324e-01  5.2155094066569596e-01 6.5288479712652436e-01 1.9985041481968066e-01  5.2133699463334859e-01 6.5221994286262630e-01 1.9949789794331230e-01  5.3567278278694963e-01 6.9790002934739237e-01 2.1821545940690490e-01  5.4204102336248972e-01 7.1550499297212999e-01 2.2606738893991082e-01  5.4359411060967766e-01 7.1880474805502514e-01 2.2854814196809223e-01  5.4247430000020336e-01 7.1672230510956358e-01 2.2651751725733943e-01  5.4178503186754712e-01 7.1505937233279981e-01 2.2556647400156654e-01  5.4179969252187865e-01 7.1527408709108709e-01 2.2543474677318873e-01  5.4179280494344539e-01 7.1525628633676297e-01 2.2542604468007590e-01  5.4082484048656310e-01 7.1271723643526141e-01 2.2421502391396589e-01  5.3754212637284005e-01 7.0438928203189977e-01 2.1963590539910918e-01  5.3372554100591785e-01 6.9363559473125225e-01 2.1460661582785251e-01  5.3344413558505677e-01 6.9277730006475735e-01 2.1423276186843901e-01  5.3333136958187055e-01 6.9240586429141437e-01 2.1411004408493947e-01  5.3315544400590220e-01 6.9187543466339663e-01 2.1389168980301843e-01  5.3115995937148552e-01 6.8585788817314208e-01 2.1137557645709637e-01  5.2898394346113431e-01 6.7879472256842677e-01 2.0882691671290601e-01  5.1495047229800928e-01 6.2730242109828138e-01 1.9208584057375727e-01  5.1460295099424858e-01 6.2567992761413682e-01 1.9178666192554622e-01  5.1384783752771901e-01 6.2250079316588181e-01 1.9091751668642962e-01  5.1778124425425065e-01 6.3833000847663124e-01 1.9551143320766645e-01  5.1785178706281054e-01 6.3857866904382643e-01 1.9562164152334938e-01  5.1528254254191030e-01 6.2830463051138941e-01 1.9265103741367612e-01  5.1643479578212859e-01 6.3291660739796074e-01 1.9401195378608280e-01  5.2102408619016649e-01 6.5051564529999684e-01 1.9949980821460708e-01  5.2641151615617499e-01 6.6943924204786043e-01 2.0612577917684144e-01  5.2705711847018588e-01 6.7114439825414907e-01 2.0729082409314700e-01  5.2513100751223363e-01 6.6454270921630065e-01 2.0497237131588661e-01  5.1982088785093084e-01 6.4597853076210843e-01 1.9817729461895517e-01  5.1866358002766366e-01 6.4225102920629173e-01 1.9645503599170089e-01  5.2551054237615635e-01 6.6562715446802212e-01 2.0610304868395485e-01  5.3894938023634786e-01 7.0466325594624435e-01 2.2496414212683832e-01  5.4905194822485270e-01 7.2794304947597499e-01 2.3927064125918648e-01  5.5527140848259682e-01 7.4023701578031409e-01 2.4807263601030355e-01  5.5869342034737557e-01 7.4601508410030870e-01 2.5315160779683782e-01  5.6104426615414404e-01 7.4875436168643472e-01 2.5771357384190102e-01  5.5003782099854914e-01 7.2179311736878049e-01 2.4887789296684043e-01  5.1424188540637583e-01 5.8858653957036311e-01 2.2160663073227257e-01  5.0516806306104223e-01 5.4773619756721070e-01 2.1124953824637011e-01  4.7650601759033423e-01 3.3073477249068389e-01 2.1248090187908938e-01  4.6845427242786924e-01 1.0269704095856202e-01 3.0535271120831309e-01  4.7132079358669488e-01 9.0066716203342848e-02 3.3076156324108497e-01  4.7261351600764456e-01 8.8631908769320158e-02 3.3958381888407141e-01  4.7682420583030610e-01 8.4511064151087251e-02 3.6806118556198858e-01  4.8143385372632402e-01 8.1148444067572365e-02 3.9858963723878210e-01  4.8433465172424273e-01 8.0437726936570114e-02 4.1681547268945995e-01  4.8462712446972966e-01 8.0447523779369479e-02 4.1860203612029206e-01  4.8466663495006823e-01 8.0451634827813145e-02 4.1884215141650882e-01  4.8467762422367183e-01 8.0453348728542082e-02 4.1890873281172902e-01  4.8468927589233929e-01 8.0455549835799542e-02 4.1897921221478485e-01  4.8468871429130717e-01 8.0455368229594482e-02 4.1897583589949883e-01  4.8469434283127188e-01 8.0456924398566679e-02 4.1900975308417243e-01  4.8469525763111010e-01 8.0457346865972820e-02 4.1901523666958446e-01  4.8469530878069694e-01 8.0457378141040578e-02 4.1901554246046574e-01  4.8469442060317908e-01 8.0456991667010036e-02 4.1901021312170372e-01  4.8469530244558273e-01 8.0457377837002159e-02 4.1901550474979921e-01  4.8469531546046618e-01 8.0457390916891747e-02 4.1901558253861265e-01  4.8469531723037285e-01 8.0457393750966874e-02 4.1901559312161002e-01  4.8469531709080149e-01 8.0457394939916646e-02 4.1901559234376284e-01  4.8469531702046259e-01 8.0457395009580615e-02 4.1901559193268373e-01  4.8469531698295765e-01 8.0457395024671696e-02 4.1901559171358527e-01  4.8469531699507062e-01 8.0457395019238723e-02 4.1901559178435477e-01  4.8469531700858665e-01 8.0457395014116195e-02 4.1901559186330634e-01  4.8469531705128832e-01 8.0457394993719053e-02 4.1901559211281775e-01  4.8469531710618546e-01 8.0457394961698264e-02 4.1901559243362868e-01  4.8469531717635800e-01 8.0457394914207128e-02 4.1901559284371254e-01  4.8469531725685167e-01 8.0457394848213626e-02 4.1901559331406346e-01  4.8469531734402699e-01 8.0457394759244211e-02 4.1901559382330095e-01  4.8469531743252442e-01 8.0457394643861382e-02 4.1901559433990648e-01  4.8469531751547174e-01 8.0457394489012471e-02 4.1901559482309536e-01  4.8469531758577916e-01 8.0457394290416678e-02 4.1901559523096910e-01  4.8469531763392543e-01 8.0457394041488800e-02 4.1901559550709250e-01  4.8469531763927204e-01 8.0457393714824257e-02 4.1901559552855772e-01  4.8469531749772166e-01 8.0457392850311060e-02 4.1901559466604804e-01  4.8469531735354743e-01 8.0457392345019890e-02 4.1901559379881631e-01  4.8469531710979441e-01 8.0457391731663080e-02 4.1901559233884650e-01  4.8469531674895588e-01 8.0457390997608957e-02 4.1901559018178003e-01  4.8469531624579909e-01 8.0457390129208481e-02 4.1901558717716364e-01  4.8469531558731987e-01 8.0457389121347728e-02 4.1901558324765398e-01  4.8469531466978838e-01 8.0457387906003805e-02 4.1901557777420939e-01  4.8469531344745326e-01 8.0457386470742062e-02 4.1901557048342247e-01  4.8469531187496595e-01 8.0457384817954031e-02 4.1901556110339938e-01  4.8469530992681609e-01 8.0457382976423172e-02 4.1901554947965519e-01  4.8469530775741215e-01 8.0457381121298646e-02 4.1901553653067597e-01  4.8469530278363931e-01 8.0457377616747996e-02 4.1901550681005661e-01  4.8469529412638679e-01 8.0457372109470099e-02 4.1901545503849291e-01  4.8469527814818392e-01 8.0457362585667797e-02 4.1901535942040585e-01  4.8469519666694316e-01 8.0457319559034665e-02 4.1901487115657260e-01  4.8469513344538773e-01 8.0457289986524766e-02 4.1901449180050815e-01  4.8469504710637445e-01 8.0457252937845058e-02 4.1901397322267470e-01  4.8469492799850006e-01 8.0457205759808789e-02 4.1901325716236676e-01  4.8469476491347024e-01 8.0457145831187432e-02 4.1901227585406514e-01  4.8469454427905390e-01 8.0457070347304788e-02 4.1901094714086673e-01  4.8469424975958320e-01 8.0456976302743524e-02 4.1900917203275412e-01  4.8469386206896437e-01 8.0456860565481084e-02 4.1900683353605972e-01  4.8469335738728025e-01 8.0456719794347278e-02 4.1900378699887453e-01  4.8469269805116499e-01 8.0456548681194534e-02 4.1899980367085626e-01  4.8469187121675927e-01 8.0456348114852083e-02 4.1899480477976497e-01  4.8469085191350197e-01 8.0456118280643613e-02 4.1898863757002797e-01  4.8468820748294544e-01 8.0455592366503265e-02 4.1897261792917567e-01  4.8468589158098035e-01 8.0455181702676015e-02 4.1895857394826724e-01  4.8468275288254614e-01 8.0454668601233056e-02 4.1893952730317119e-01  4.8467863959976581e-01 8.0454055672507213e-02 4.1891454809233625e-01  4.8467342398253949e-01 8.0453352031758185e-02 4.1888285111731699e-01  4.8466703157762031e-01 8.0452576803846723e-02 4.1884397358756786e-01  4.8465935031481960e-01 8.0451745248202977e-02 4.1879722300223371e-01  4.8464404567082331e-01 8.0450241926675756e-02 4.1870401901552690e-01  4.8464006715460206e-01 8.0449864390231954e-02 4.1867978382238857e-01  4.8463871877332598e-01 8.0449687382708898e-02 4.1867158727309622e-01  4.8463894161599419e-01 8.0449634497230388e-02 4.1867296974095908e-01  4.8464054550085461e-01 8.0449675041632307e-02 4.1868277826614475e-01  4.8464280529664172e-01 8.0449764666664633e-02 4.1869658691081379e-01  4.8464492880993315e-01 8.0449857201251210e-02 4.1870956009696708e-01  4.8464403257901145e-01 8.0449826057760826e-02 4.1870408018214278e-01  4.8463704145506292e-01 8.0449584505106503e-02 4.1866133385723464e-01  4.8462289492389243e-01 8.0449225352975579e-02 4.1857476820850226e-01  4.8459911877438200e-01 8.0448943076180154e-02 4.1842910041026776e-01  4.8456143800979073e-01 8.0449198415782158e-02 4.1819783689245710e-01  4.8450389968533103e-01 8.0450903955408506e-02 4.1784388892789287e-01  4.8441669858744951e-01 8.0455881649551031e-02 4.1730591059882605e-01  4.8428238302302457e-01 8.0467786620762066e-02 4.1647439825412902e-01  4.8406018177360732e-01 8.0495702122696883e-02 4.1509322280809113e-01  4.8290759263630478e-01 8.0731546635147852e-02 4.0786737298106429e-01  4.8229238782750339e-01 8.0917642657182737e-02 4.0396902370217841e-01  4.8164016593293052e-01 8.1176756354278845e-02 3.9979241421432837e-01  4.8097585757403516e-01 8.1511077087548151e-02 3.9548818013302534e-01  4.8035996279855303e-01 8.1892228326163746e-02 3.9144611375216271e-01  4.7962290394102336e-01 8.2526145735250703e-02 3.8647780212445088e-01  4.7891424045410896e-01 8.3286505685499695e-02 3.8159540042305057e-01  4.7778587458052429e-01 8.4643527915533798e-02 3.7373369126648232e-01  4.7311982185721368e-01 9.1879197441948113e-02 3.4029193969880989e-01  4.7093786790797737e-01 9.6617532406893525e-02 3.2388984450474245e-01  4.6896913319746453e-01 1.0224361399776741e-01 3.0833622463043814e-01  4.6717967733090959e-01 1.0911696650090480e-01 2.9321348061013125e-01  4.6559080055395119e-01 1.1758624727352654e-01 2.7845381684741283e-01  4.6422728193812846e-01 1.2803402067717493e-01 2.6397853225281126e-01  4.6310593687753654e-01 1.4112985799041064e-01 2.4947098393558459e-01  4.6168375822196750e-01 1.7795327097572713e-01 2.1908146963745395e-01  4.6158993229181672e-01 1.9276744621272499e-01 2.0964716375693601e-01  4.6175466750899546e-01 2.0563091400082861e-01 2.0289741909070050e-01  4.6208501627457810e-01 2.1639117430217300e-01 1.9838250642710645e-01  4.6302614838172562e-01 2.3107424456852088e-01 1.9513585804254971e-01  4.6425759401653299e-01 2.4503881652171991e-01 1.9397883166681421e-01  4.6601932475394370e-01 2.6342001393609338e-01 1.9310798937844029e-01  4.6827719137488599e-01 2.8547689151640637e-01 1.9260690516509174e-01  4.7097086703141505e-01 3.1027861871469725e-01 1.9254344972496842e-01  4.7404609615582011e-01 3.3715363242732466e-01 1.9286799520248499e-01  4.7742519393649452e-01 3.6526364510510806e-01 1.9353632606779234e-01  4.8100596143140356e-01 3.9363150685267995e-01 1.9451887436239876e-01  4.8463334640132005e-01 4.2102256131636911e-01 1.9574108105412716e-01  4.9181295494436372e-01 4.7118570851441827e-01 1.9887927604915598e-01  4.9617623722979715e-01 4.9929281062242653e-01 2.0112290293513149e-01  5.0070422454647501e-01 5.2692367506371351e-01 2.0355977073360398e-01  5.0524468127347422e-01 5.5312180928634969e-01 2.0603712456720416e-01  5.0966834453511634e-01 5.7729440871032045e-01 2.0844316884633396e-01  5.1387203456496955e-01 5.9905830926500669e-01 2.1070184970885411e-01  5.1778329068718987e-01 6.1828753090569755e-01 2.1275883312792465e-01  5.2134553412991025e-01 6.3497285592511554e-01 2.1458594247171989e-01  5.2451929315820267e-01 6.4919605053285590e-01 2.1616991190041202e-01  5.2728631977949803e-01 6.6112042614239463e-01 2.1750522388392224e-01  5.2964089875355502e-01 6.7094312043660631e-01 2.1859250562004803e-01  5.3158412147767997e-01 6.7885420256312545e-01 2.1943373502869457e-01  5.3312554426263248e-01 6.8504509901692123e-01 2.2002569697396443e-01  5.3425802062194583e-01 6.8961104969713616e-01 2.2035823847994521e-01  5.3501530063132918e-01 6.9278064499609493e-01 2.2043338777398386e-01  5.3545330324285156e-01 6.9531563770187566e-01 2.1981246085586317e-01  5.3518406482300784e-01 6.9490628884433603e-01 2.1913330800798661e-01  5.3462752287195392e-01 6.9353501325974554e-01 2.1820490313245644e-01  5.3376407531995174e-01 6.9113278637548958e-01 2.1698693229137128e-01  5.3261059857609772e-01 6.8773658061040466e-01 2.1547240744171040e-01  5.3113159899807871e-01 6.8319949745244102e-01 2.1359455122709531e-01  5.2922142505155090e-01 6.7711952917931806e-01 2.1119833650276981e-01  5.2354709347536577e-01 6.5804221218626990e-01 2.0406596385683576e-01  5.2125673768742709e-01 6.4993511651768943e-01 2.0115149746771033e-01  5.1927289786746811e-01 6.4270032176122094e-01 1.9859837342924466e-01  5.1753630133932438e-01 6.3620023934166070e-01 1.9634273116641227e-01  5.1603902240421973e-01 6.3046799211998594e-01 1.9438550615905067e-01  5.1479137208194958e-01 6.2559602628136912e-01 1.9274884681836588e-01  5.1380406232185882e-01 6.2167518896060148e-01 1.9145224518247619e-01  5.1308828228243386e-01 6.1879351136275551e-01 1.9051259795698425e-01  5.1248486454037756e-01 6.1632989985819520e-01 1.8971924668267923e-01  5.1230589674854632e-01 6.1558576832698464e-01 1.8948161875321043e-01  5.1223602367634391e-01 6.1528271951292501e-01 1.8938469950999012e-01  5.1262530342723911e-01 6.1683615514659129e-01 1.8986176718303965e-01  5.1302865342722825e-01 6.1847972778970506e-01 1.9035671360105932e-01  5.1353394191119806e-01 6.2054827662989231e-01 1.9096790232053595e-01  5.1412298561177117e-01 6.2296361462661221e-01 1.9166879053172983e-01  5.1477343954243593e-01 6.2563109574453413e-01 1.9242870557603134e-01  5.1548173299900801e-01 6.2853210539547222e-01 1.9324051663378564e-01  5.1623416599335725e-01 6.3160954332577768e-01 1.9408467514381825e-01  5.1785463474029558e-01 6.3825284535536331e-01 1.9582314187307900e-01  5.1830943743958768e-01 6.4013702307060749e-01 1.9627908132608909e-01  5.1863382101123678e-01 6.4149431085672004e-01 1.9658933594040665e-01  5.1886914511492510e-01 6.4249286682241680e-01 1.9680243768002781e-01  5.1903820327950112e-01 6.4322427488360423e-01 1.9694532494554717e-01  5.1915660310801570e-01 6.4375061952490487e-01 1.9703611709292773e-01  5.1923488466470658e-01 6.4411363400677057e-01 1.9708672820611706e-01  5.1928125112171941e-01 6.4434570026412863e-01 1.9710615708442952e-01  5.1930428286994634e-01 6.4448041604910156e-01 1.9710382620854067e-01  5.1930949046529573e-01 6.4453939030625418e-01 1.9708561223780388e-01  5.1930358547049216e-01 6.4454863678407792e-01 1.9705898722799658e-01  5.1929028581301306e-01 6.4452257911335520e-01 1.9702799404896484e-01  5.1927425933102123e-01 6.4447911895992438e-01 1.9699800993522007e-01  5.1926149405854016e-01 6.4444103487585025e-01 1.9697621274065460e-01  5.1931180322002735e-01 6.4463213340526160e-01 1.9703793500200839e-01  5.1949859386400721e-01 6.4532954778851803e-01 1.9727341147756447e-01  5.1981335767838599e-01 6.4650072323188390e-01 1.9766995000586560e-01  5.2025288538422299e-01 6.4812726732545367e-01 1.9822348752801214e-01  5.2082174796242209e-01 6.5021866991692312e-01 1.9893883623814315e-01  5.2208835888195193e-01 6.5481059951792897e-01 2.0053320464896668e-01  5.2170026269010994e-01 6.5345885635409506e-01 2.0001735661444531e-01  5.2152717251433967e-01 6.5286642867430578e-01 1.9977518147219206e-01  5.2142491313567030e-01 6.5252055368061967e-01 1.9962727995626733e-01  5.2136391381048486e-01 6.5232245788395027e-01 1.9953760780139354e-01  5.2137140452110708e-01 6.5233469178816206e-01 1.9954870411259976e-01  5.2144882516442692e-01 6.5260117954925845e-01 1.9966278266338322e-01  5.2155793497868164e-01 6.5296318211066784e-01 1.9982543737743796e-01  5.2433710788448329e-01 6.6263117035104169e-01 2.0343579424676322e-01  5.2552611185812192e-01 6.6668018597752499e-01 2.0496427393041070e-01  5.2669315999584265e-01 6.7057801203426015e-01 2.0646576302466382e-01  5.2786461995993172e-01 6.7441158988014338e-01 2.0797646011556792e-01  5.2904829416515786e-01 6.7820282326867376e-01 2.0950881277221306e-01  5.3024434211746996e-01 6.8194939409980238e-01 2.1106433004923522e-01  5.3145915588734993e-01 6.8566700225339650e-01 2.1265233842920994e-01  5.3270984261726184e-01 6.8940207091103778e-01 2.1429561549625681e-01  5.3404391636223547e-01 6.9328542085614764e-01 2.1605625887582949e-01  5.3728694322647808e-01 7.0235105983408763e-01 2.2036546773708640e-01  5.3850379528689774e-01 7.0562712551848916e-01 2.2198699857709608e-01  5.3954179679848324e-01 7.0836664318642262e-01 2.2336715386039441e-01  5.4043925833546647e-01 7.1069570018616424e-01 2.2455654523935303e-01  5.4121147039038520e-01 7.1267337519231944e-01 2.2557518527305995e-01  5.4186720688112633e-01 7.1433631397599362e-01 2.2643498072856799e-01  5.4241085739548989e-01 7.1570704756158199e-01 2.2714165420038959e-01  5.4284680614050895e-01 7.1680539612870775e-01 2.2770086646231905e-01  5.4317922247221206e-01 7.1764831185508582e-01 2.2811811452132960e-01  5.4341373789590963e-01 7.1825390841048031e-01 2.2840108296639536e-01  5.4355385342469620e-01 7.1863289761530669e-01 2.2855520642996888e-01  5.4360498773098809e-01 7.1879766557796254e-01 2.2858974146431593e-01  5.4346447876419379e-01 7.1853374043830076e-01 2.2834120466009666e-01  5.4321705053631941e-01 7.1800033611357728e-01 2.2795749214090724e-01  5.4287831018341859e-01 7.1726303233138489e-01 2.2743405793151480e-01  5.4247498438048747e-01 7.1639073898907002e-01 2.2680032754688870e-01  5.4220991625735937e-01 7.1602524832242587e-01 2.2620585861107634e-01  5.4235049372440824e-01 7.1640316300198703e-01 2.2636591425924513e-01  5.4243904905489593e-01 7.1663221701259949e-01 2.2647377282509512e-01  5.4244095149470206e-01 7.1663711884975601e-01 2.2647609989270695e-01  5.4235719615256872e-01 7.1642484779432614e-01 2.2637036235810273e-01  5.4221674791501584e-01 7.1607615527818325e-01 2.2618595874071798e-01  5.4202082237329330e-01 7.1560604387618520e-01 2.2591322676434361e-01  5.4161946928772631e-01 7.1470201668285960e-01 2.2529920028053313e-01  5.4159408537699005e-01 7.1468705307610969e-01 2.2522428775553566e-01  5.4167108383184737e-01 7.1491819154972946e-01 2.2529374235533711e-01  5.4176139546485069e-01 7.1516923080572137e-01 2.2539189133061863e-01  5.4179379420665508e-01 7.1525850737787977e-01 2.2542760456471997e-01  5.4175515448386002e-01 7.1515532732550458e-01 2.2538183128277006e-01  5.4164302624682181e-01 7.1485585894329118e-01 2.2524838082259852e-01  5.4139463034712609e-01 7.1420124581651057e-01 2.2494179744082815e-01  5.3976035518377252e-01 7.1003638856420104e-01 2.2275650286769139e-01  5.3907136563071678e-01 7.0830243250566449e-01 2.2179340613847154e-01  5.3852572097310869e-01 7.0692092379679305e-01 2.2102318403405086e-01  5.3807817060180885e-01 7.0577778039496253e-01 2.2039001682539541e-01  5.3773636565559890e-01 7.0489623531546841e-01 2.1990756889155302e-01  5.3732328641472327e-01 7.0380171117819879e-01 2.1933987115851239e-01  5.3694512083681989e-01 7.0277391186262661e-01 2.1883398345648250e-01  5.3647866616