<?xml version="1.0"?>
<VTKFile type="UnstructuredGrid"  version="0.1"  >
<UnstructuredGrid>
<Piece  NumberOfPoints="7288" NumberOfCells="14083">
<Points>
<DataArray  type="Float64"  NumberOfComponents="3"  format="ascii">239.8 188 0  250.2 180 0  258.2 172.4 0  257 169.4 0  259.9 157.4 0  258.7 150.3 0  261 143.5 0  251.7 144.4 0  250 138.7 0  247 138.1 0  245.2 130.8 0  247.3 126.4 0  242.7 118.6 0  231.2 107.7 0  226 102.4 0  226.5 93.90000000000001 0  224.5 91.19999999999999 0  224.5 84.09999999999999 0  234.5 73.80000000000001 0  228.4 68.90000000000001 0  230 70 0  233.4 68 0  222.7 61.5 0  220.6 45.5 0  223.4 49.40000000000001 0  224 47 0  221.8 43.09999999999999 0  221 38.40000000000001 0  219.5 38.5 0  219.4 41.69999999999999 0  217.1 36.90000000000001 0  209.7 36 0  209.5 31.69999999999999 0  205.1 29.90000000000001 0  201.5 30.40000000000001 0  199.2 38.69999999999999 0  201.8 41.40000000000001 0  194.8 53.80000000000001 0  196.1 57.69999999999999 0  193 59 0  191.4 66.09999999999999 0  193.5 66.5 0  194.1 64.40000000000001 0  195.6 64.69999999999999 0  195.4 72.40000000000001 0  199.5 77.30000000000001 0  197.7 86.90000000000001 0  200.6 87.5 0  201.5 91 0  198 94.80000000000001 0  198.6 100 0  197.3 105.4 0  198 109.5 0  197 112.7 0  198.3 116.1 0  201.3 122 0  207.2 121 0  208.1 126.7 0  205.6 127.9 0  209.1 134.9 0  210.9 144.4 0  210.1 147.9 0  213 148.4 0  215.4 149.3 0  215.1 152.8 0  219.9 159.7 0  220.3 163.2 0  218.7 164.9 0  219.9 166.7 0  221.9 169.7 0  220 170.3 0  224.9 174.7 0  229.8 177.4 0  229.7 181 0  228 172.9 0  239 178 0  240.4 180 0  239 181.5 0  241.2 185.9 0  242.95 187.99 0  240.5875 187.9975 0  241.375 187.995 0  242.1625 187.9925 0  243.6090909090879 187.2636363636397 0  244.2681818181765 186.5372727272785 0  244.9272727272692 185.810909090913 0  245.5863636363531 185.0845454545571 0  246.245454545445 184.3581818181923 0  246.9045454545351 183.6318181818295 0  247.5636363636303 182.9054545454612 0  248.2227272727197 182.1790909090992 0  248.8818181818179 181.4527272727275 0  249.5409090909066 180.7263636363664 0  250.8666666666961 179.3666666666387 0  251.5333333334033 178.7333333332668 0  252.2000000000994 178.0999999999055 0  252.8666666668011 177.466666666539 0  253.5333333335083 176.8333333331671 0  254.2000000002044 176.1999999998058 0  254.8666666669005 175.5666666664445 0  255.5333333336077 174.9333333330727 0  256.2000000002685 174.2999999997449 0  256.8666666668457 173.6666666664966 0  257.5333333334283 173.033333333243 0  257.9000000000077 171.6500000000191 0  257.6000000000015 170.9000000000038 0  257.2999999999954 170.1499999999885 0  257.2230769230778 168.4769230769195 0  257.4461538461543 167.5538461538442 0  257.6692307692309 166.6307692307688 0  257.8923076923074 165.7076923076935 0  258.115384615384 164.7846153846181 0  258.3384615384605 163.8615384615427 0  258.5615384615395 162.9384615384572 0  258.784615384616 162.0153846153819 0  259.0076923076926 161.0923076923065 0  259.2307692307691 160.1692307692311 0  259.4538461538457 159.2461538461558 0  259.6769230769222 158.3230769230804 0  259.750000000001 156.512500000006 0  259.6000000000014 155.6250000000082 0  259.4500000000029 154.7375000000176 0  259.3000000000018 153.8500000000108 0  259.1500000000007 152.962500000004 0  259.0000000000004 152.0750000000026 0  258.849999999999 151.187499999994 0  258.9875000000052 149.4499999999846 0  259.275000000002 148.5999999999941 0  259.5624999999954 147.7500000000135 0  259.849999999995 146.900000000015 0  260.1374999999945 146.0500000000164 0  260.4249999999913 145.2000000000259 0  260.7124999999948 144.3500000000154 0  260.0700000000398 143.5899999999961 0  259.1400000000573 143.6799999999944 0  258.2100000000351 143.7699999999966 0  257.2800000000262 143.8599999999975 0  256.350000000011 143.9499999999989 0  255.4199999999881 144.0400000000011 0  254.4899999999726 144.1300000000026 0  253.5599999999944 144.2200000000005 0  252.6300000000009 144.3099999999999 0  251.4166666666658 143.4499999999971 0  251.1333333333388 142.5000000000182 0  250.8500000000015 141.5500000000051 0  250.5666666666612 140.5999999999818 0  250.2833333333342 139.6500000000029 0  249.2500000000005 138.5500000000001 0  248.5000000000011 138.4000000000002 0  247.7499999999995 138.2499999999999 0  246.7750000000005 137.1875000000023 0  246.5500000000021 136.2750000000085 0  246.3250000000036 135.3625000000147 0  246.1000000000042 134.450000000017 0  245.8750000000022 133.5375000000088 0  245.650000000003 132.6250000000124 0  245.4250000000046 131.7125000000187 0  245.619999999996 129.9200000000084 0  246.0399999999992 129.0400000000017 0  246.4599999999987 128.1600000000028 0  246.8800000000001 127.2799999999997 0  246.8399999999988 125.6199999999979 0  246.3799999999984 124.8399999999973 0  245.9199999999991 124.0599999999985 0  245.4600000000036 123.2800000000062 0  245.0000000000049 122.5000000000082 0  244.5400000000036 121.7200000000062 0  244.0800000000033 120.9400000000056 0  243.6200000000016 120.1600000000027 0  243.1600000000012 119.3800000000021 0  241.9812499999996 117.9187499999997 0  241.2625000000007 117.2375000000007 0  240.5437500000017 116.5562500000017 0  239.8250000000041 115.875000000004 0  239.1062500000066 115.1937500000063 0  238.3875000000076 114.5125000000072 0  237.6687500000087 113.8312500000082 0  236.9500000000083 113.1500000000079 0  236.231250000008 112.4687500000076 0  235.512500000009 111.7875000000085 0  234.7937500000045 111.1062500000043 0  234.0750000000042 110.4250000000039 0  233.3562500000066 109.7437500000062 0  232.6375000000021 109.062500000002 0  231.9187500000031 108.381250000003 0  230.5500000000004 107.0375000000004 0  229.9000000000021 106.3750000000021 0  229.2500000000038 105.7125000000039 0  228.6000000000041 105.0500000000042 0  227.9500000000018 104.3875000000018 0  227.2999999999952 103.7249999999951 0  226.6500000000024 103.0625000000024 0  226.0555555555555 101.4555555555556 0  226.1111111111111 100.5111111111111 0  226.1666666666667 99.56666666666668 0  226.2222222222222 98.62222222222223 0  226.2777777777778 97.67777777777778 0  226.3333333333333 96.73333333333335 0  226.3888888888889 95.78888888888889 0  226.4444444444445 94.84444444444446 0  226 93.22499999999999 0  225.5000000000026 92.55000000000358 0  225.0000000000026 91.87500000000358 0  224.5 90.31250000000068 0  224.5 89.4250000000097 0  224.5 88.53750000001317 0  224.5 87.65000000001388 0  224.5 86.76250000001457 0  224.5 85.87500000001248 0  224.5 84.9874999999993 0  225.1666666666659 83.41333333333409 0  225.8333333333319 82.72666666666818 0  226.4999999999978 82.04000000000228 0  227.1666666666649 81.35333333333514 0  227.8333333333301 80.66666666667 0  228.4999999999942 79.980000000006 0  229.1666666666601 79.2933333333401 0  229.8333333333316 78.60666666666847 0  230.4999999999975 77.92000000000257 0  231.1666666666644 77.23333333333572 0  231.8333333333295 76.54666666667057 0  232.4999999999972 75.86000000000287 0  233.1666666666681 75.17333333333181 0  233.8333333333368 74.48666666666306 0  233.7499999999995 73.16666666666629 0  233.0000000000018 72.53333333333488 0  232.2500000000014 71.90000000000116 0  231.5000000000009 71.26666666666743 0  230.7500000000005 70.63333333333372 0  229.233333333333 68.75000000000006 0  230.0666666666665 68.60000000000004 0  230.8999999999995 68.45000000000009 0  231.7333333333325 68.30000000000015 0  232.566666666667 68.14999999999995 0  232.5499999999897 68.50000000000607 0  231.7 69 0  230.8500000000103 69.49999999999393 0  227.8300000000008 68.16000000000106 0  227.2600000000064 67.42000000000837 0  226.6900000000077 66.68000000001001 0  226.1200000000024 65.94000000000314 0  225.5500000000108 65.20000000001409 0  224.9800000000098 64.46000000001268 0  224.4100000000007 63.72000000000098 0  223.8399999999971 62.97999999999621 0  223.2699999999993 62.23999999999915 0  222.753846153846 60.56923076923239 0  222.8076923076921 59.63846153846478 0  222.8615384615381 58.70769230769827 0  222.9153846153842 57.77692307693071 0  222.9692307692302 56.84615384616315 0  223.0230769230761 55.91538461539836 0  223.0769230769224 54.98461538462665 0  223.1307692307688 54.05384615385345 0  223.184615384615 53.12307692308312 0  223.2384615384611 52.19230769231556 0  223.2923076923071 51.26153846154906 0  223.3461538461533 50.33076923077847 0  222.8400000000024 48.62000000000327 0  222.2800000000047 47.84000000000661 0  221.7200000000005 47.06000000000071 0  221.1600000000003 46.28000000000039 0  221.4500000000116 45.87500000000512 0  222.3 46.25 0  223.1499999999884 46.62499999999488 0  223.5600000000055 46.22000000000981 0  223.1199999999987 45.43999999999767 0  222.6800000000061 44.66000000001075 0  222.2399999999969 43.8799999999944 0  221.6400000000004 42.16000000000253 0  221.4800000000009 41.22000000000548 0  221.3200000000014 40.28000000000801 0  221.1600000000009 39.34000000000556 0  220.25 38.45 0  219.4749999999999 39.30000000000165 0  219.45 40.09999999999999 0  219.425 40.90000000000112 0  219.0166666666641 40.89999999999463 0  218.6333333333375 40.10000000000875 0  218.2500000000016 39.30000000000339 0  217.8666666666635 38.49999999999351 0  217.483333333337 37.70000000000762 0  216.1750000000165 36.78750000000201 0  215.2500000000275 36.67500000000335 0  214.3250000000385 36.56250000000469 0  213.4000000000277 36.45000000000337 0  212.4750000000059 36.33750000000072 0  211.5499999999838 36.22499999999803 0  210.6249999999835 36.11249999999799 0  209.6600000000001 35.14000000000318 0  209.6200000000001 34.28000000000268 0  209.5800000000001 33.42000000000284 0  209.5399999999998 32.55999999999681 0  208.6200000000117 31.34000000000476 0  207.7400000000138 30.98000000000564 0  206.8600000000162 30.62000000000662 0  205.9800000000174 30.26000000000711 0  204.2000000000054 30.02499999999925 0  203.2999999999946 30.15000000000076 0  202.3999999999945 30.27500000000076 0  201.2444444444438 31.32222222222468 0  200.9888888888895 32.24444444
[...]
<PointData  Vectors="f_12"> 
<DataArray  type="Float64"  Name="f_12"  NumberOfComponents="3" format="ascii">5.6358356088576678e-01 1.5932245468826831e-01 7.9700755488444541e-01  5.6251072176703720e-01 1.5710314013137749e-01 7.9393177501738910e-01  5.6127346900584940e-01 1.5458515887310065e-01 7.9030105422532460e-01  5.6072072461427469e-01 1.5347977967789597e-01 7.8864695638419180e-01  5.5715026730327677e-01 1.4653209043376930e-01 7.7755587580674834e-01  5.5500475985469455e-01 1.4253792558910922e-01 7.7053884589576360e-01  5.5434001268039668e-01 1.4131823174393091e-01 7.6831453758522539e-01  5.5151817447899265e-01 1.3638494389936637e-01 7.5856094995310452e-01  5.4763138722946703e-01 1.2986596206397430e-01 7.4448878208664615e-01  5.4576749114230882e-01 1.2692370217672266e-01 7.3739764443251332e-01  5.3955814800358748e-01 1.1767515092842269e-01 7.1260283658731194e-01  5.3769302555769249e-01 1.1507959626663405e-01 7.0478337306246475e-01  5.3522949414135235e-01 1.1183316252442721e-01 6.9416350598742615e-01  5.2955031648849749e-01 1.0496298318149137e-01 6.6857457430965439e-01  5.2639282688712208e-01 1.0149846985264570e-01 6.5368982267992415e-01  5.2396345630870800e-01 9.8986741116874888e-02 6.4194397108615409e-01  5.2332775287831912e-01 9.8358627595252754e-02 6.3882190333716837e-01  5.2183208797270975e-01 9.6915907360364650e-02 6.3141260091954754e-01  5.2093233449980236e-01 9.6073186622844323e-02 6.2690961769449571e-01  5.2083349699800563e-01 9.5982314520879922e-02 6.2641264903303029e-01  5.2086526950690093e-01 9.6011479173098532e-02 6.2657245545996398e-01  5.2084636782192473e-01 9.5994032822964898e-02 6.2647740729221479e-01  5.2044083278445052e-01 9.5623524914120600e-02 6.2443419338198636e-01  5.2000059801699516e-01 9.5225360881122600e-02 6.2220848322495770e-01  5.2007896224433769e-01 9.5295839735626858e-02 6.2260531549118125e-01  5.1998424041080282e-01 9.5210652982207863e-02 6.2212563198949300e-01  5.1997903730492046e-01 9.5205986701293141e-02 6.2209926789369230e-01  5.1996394302731985e-01 9.5192432559102827e-02 6.2202279087266732e-01  5.1996396218861751e-01 9.5192449802155368e-02 6.2202288795479943e-01  5.1996834856374763e-01 9.5196394358451217e-02 6.2204511094439618e-01  5.1993880638671586e-01 9.5169901415376845e-02 6.2189540545561872e-01  5.1990418954718842e-01 9.5138904110288858e-02 6.2171992896755190e-01  5.1988048986823443e-01 9.5117690303551272e-02 6.2159976997776967e-01  5.1987496448228110e-01 9.5112747080680321e-02 6.2157175183881219e-01  5.1987463005381962e-01 9.5112448223566404e-02 6.2157005597266546e-01  5.1989903826222172e-01 9.5134296210524202e-02 6.2169381555327119e-01  5.1993503498516369e-01 9.5166556138032973e-02 6.2187627367377052e-01  5.2014273156892465e-01 9.5353295280054873e-02 6.2292802993374308e-01  5.2023026728515720e-01 9.5432380735817446e-02 6.2337071076762685e-01  5.2028108113915417e-01 9.5478321465289381e-02 6.2362759465770190e-01  5.2048998861894935e-01 9.5668045702618928e-02 6.2468240411142906e-01  5.2048702945461989e-01 9.5665379335854797e-02 6.2466745911406674e-01  5.2035436262740986e-01 9.5544800125865734e-02 6.2399777382324773e-01  5.2039978180464641e-01 9.5586079752039005e-02 6.2422707575292158e-01  5.2063173580174993e-01 9.5797639297686768e-02 6.2539695334774537e-01  5.2109858675549514e-01 9.6228169797757793e-02 6.2774391627840020e-01  5.2186738793352438e-01 9.6947094780933843e-02 6.3159029029470803e-01  5.2208179816275291e-01 9.7151745266349579e-02 6.3265684756099438e-01  5.2287675395623023e-01 9.7916667448385633e-02 6.3659732016879744e-01  5.2359960897561031e-01 9.8621917212034338e-02 6.4016001603248762e-01  5.2425157185046267e-01 9.9272350675238069e-02 6.4335003593027373e-01  5.2507014544579311e-01 1.0010203242406737e-01 6.4733079144407524e-01  5.2569660758077175e-01 1.0074914579542482e-01 6.5035609716317366e-01  5.2611884081379678e-01 1.0118970195709978e-01 6.5238662152732751e-01  5.2651242827942646e-01 1.0160585848846608e-01 6.5427125882208581e-01  5.2721151021194956e-01 1.0235506778013460e-01 6.5760310019852830e-01  5.2882010839229721e-01 1.0414942259590997e-01 6.6516143222706525e-01  5.3246867773032069e-01 1.0839981613567201e-01 6.8191216506408747e-01  5.3310769920055989e-01 1.0916823026603019e-01 6.8479170358445829e-01  5.3560483540451198e-01 1.1233418466089723e-01 6.9579425387503258e-01  5.4023712955513181e-01 1.1860883154287565e-01 7.1542394674469001e-01  5.4094287859098644e-01 1.1960839314303988e-01 7.1832706237093136e-01  5.4145192531899977e-01 1.2035462329105691e-01 7.2039165307729502e-01  5.4316674910086205e-01 1.2290690704259620e-01 7.2725438662592157e-01  5.4536391162560283e-01 1.2625138811751840e-01 7.3587556882672100e-01  5.5042713517121056e-01 1.3451262457519997e-01 7.5469233847932926e-01  5.5309986197102434e-01 1.3913082699867904e-01 7.6408695532463400e-01  5.5384973106181390e-01 1.4045415108156259e-01 7.6666026902304274e-01  5.5431895083300498e-01 1.4129782083206568e-01 7.6824491466390665e-01  5.5520417154771740e-01 1.4290743564666267e-01 7.7120406813729980e-01  5.5497235573653692e-01 1.4247977781338747e-01 7.7043650749138448e-01  5.5655206452504558e-01 1.4540389763642123e-01 7.7562969304814400e-01  5.5940757427237908e-01 1.5087931353826178e-01 7.8465467694038504e-01  5.5973991240307552e-01 1.5152753572445504e-01 7.8567693148504525e-01  5.5735840018642890e-01 1.4693726032182652e-01 7.7821513051403257e-01  5.6115604428895471e-01 1.5436119154225203e-01 7.8994424050188916e-01  5.6247102482604949e-01 1.5702985343806489e-01 7.9381149528426209e-01  5.6293097981675277e-01 1.5797178596277425e-01 7.9514462131094910e-01  5.6346999818005072e-01 1.5908644652498810e-01 7.9668508455111176e-01  5.6353901732518707e-01 1.5922973433221793e-01 7.9688123565754054e-01  5.6357782738032702e-01 1.5931052425260078e-01 7.9699129687527537e-01  5.6356546794874307e-01 1.5928479939951865e-01 7.9695625227936862e-01  5.6355139471704818e-01 1.5925549979978998e-01 7.9691634590843674e-01  5.6350765898272326e-01 1.5916450736287929e-01 7.9679220748821500e-01  5.6345158825600394e-01 1.5904793218498797e-01 7.9663288126254961e-01  5.6337922177048849e-01 1.5889757465611365e-01 7.9642698806830636e-01  5.6329452580885275e-01 1.5872174966754329e-01 7.9618562410221161e-01  5.6319971289380688e-01 1.5852511805930672e-01 7.9591493387650836e-01  5.6309775372114301e-01 1.5831390276831253e-01 7.9562324001860829e-01  5.6298870612606144e-01 1.5808829549131281e-01 7.9531058354839756e-01  5.6287489593770301e-01 1.5785315557681451e-01 7.9498352774225767e-01  5.6275821948403071e-01 1.5761245006381017e-01 7.9464742256985565e-01  5.6263699018643931e-01 1.5736276439700456e-01 7.9429733442354822e-01  5.6239270309982126e-01 1.5686086858796369e-01 7.9358927725843553e-01  5.6227812853127879e-01 1.5662606149145644e-01 7.9325598621212012e-01  5.6216315670607131e-01 1.5639085945992837e-01 7.9292075682301777e-01  5.6204768817763118e-01 1.5615506087877165e-01 7.9258330706475799e-01  5.6193244873128945e-01 1.5592015226079883e-01 7.9224575148982090e-01  5.6181827054261857e-01 1.5568781564224674e-01 7.9191055895756002e-01  5.6170492201252475e-01 1.5545758322135692e-01 7.9157706915066561e-01  5.6159435567985605e-01 1.5523339748964779e-01 7.9125107585268373e-01  5.6148953983717409e-01 1.5502124003693893e-01 7.9094140547094594e-01  5.6139429814901742e-01 1.5482878380359927e-01 7.9065949637941635e-01  5.6131644188805396e-01 1.5467171539378136e-01 7.9042865500566750e-01  5.6122616319074614e-01 1.5449023608271920e-01 7.9016016384299070e-01  5.6112188987319433e-01 1.5428127739790160e-01 7.8984909701452288e-01  5.6096370518636707e-01 1.5396482533277819e-01 7.8937603040226212e-01  5.6040397281699827e-01 1.5284923516559337e-01 7.8769241049118166e-01  5.6011774504397238e-01 1.5228152131339492e-01 7.8682524758310568e-01  5.5983546055686073e-01 1.5172382753245262e-01 7.8596533564348203e-01  5.5955235754048760e-01 1.5116676527333103e-01 7.8509824388076932e-01  5.5926787511315490e-01 1.5060927673557647e-01 7.8422221992422125e-01  5.5898267325965123e-01 1.5005268134249122e-01 7.8333927972512662e-01  5.5869806051936821e-01 1.4949953754412368e-01 7.8245349057939961e-01  5.5841545717224061e-01 1.4895254837641481e-01 7.8156941660150658e-01  5.5813726098719008e-01 1.4841632384887346e-01 7.8069465697218510e-01  5.5786455616673936e-01 1.4789285008059175e-01 7.7983290407404937e-01  5.5760235517406131e-01 1.4739154079375280e-01 7.7900043402106833e-01  5.5735634486676200e-01 1.4692303686549107e-01 7.7821585535910853e-01  5.5694772792368041e-01 1.4614960038915856e-01 7.7690427560277753e-01  5.5670462906388340e-01 1.4569221128427326e-01 7.7611906066789560e-01  5.5644059726909112e-01 1.4519732098055921e-01 7.7526256361115109e-01  5.5616474271936167e-01 1.4468230438752502e-01 7.7436369472561750e-01  5.5588221838868512e-01 1.4415695797702552e-01 7.7343876720263760e-01  5.5559698329070362e-01 1.4362866747499489e-01 7.7250054744680141e-01  5.5530857228563280e-01 1.4309654072379632e-01 7.7154742004236365e-01  5.5476213190126067e-01 1.4209254542743210e-01 7.6973038325486942e-01  5.5459396421462492e-01 1.4178448755064116e-01 7.6916805316485548e-01  5.5448170277633846e-01 1.4157892689872034e-01 7.6879160322210949e-01  5.5440695456637390e-01 1.4144202083599935e-01 7.6854037389785446e-01  5.5436385131495891e-01 1.4136286019865382e-01 7.6839520470893785e-01  5.5434394339097670e-01 1.4132602260375693e-01 7.6832798978942074e-01  5.5433916122736215e-01 1.4131686343759112e-01 7.6831172801071590e-01  5.5433254677327448e-01 1.4130496469735346e-01 7.6828945585588282e-01  5.5430060760317212e-01 1.4124804265330568e-01 7.6818202044785866e-01  5.5423343546931703e-01 1.4112823691221185e-01 7.6795571507941862e-01  5.5412367355987990e-01 1.4093265482366804e-01 7.6758513873640777e-01  5.5396055062114891e-01 1.4064258146012390e-01 7.6703273459744981e-01  5.5373424416052008e-01 1.4024143831919547e-01 7.6626327580545894e-01  5.5343240525637794e-01 1.3970889078964652e-01 7.6523143973842334e-01  5.5303235381435312e-01 1.3900729918402158e-01 7.6385426361548781e-01  5.5247528320480266e-01 1.3803752355191948e-01 7.6191941114400052e-01  5.5039141788714796e-01 1.3445899215939908e-01 7.5455982403097066e-01  5.4959680990288662e-01 1.3311541639063990e-01 7.5170396679716478e-01  5.4891951826481933e-01 1.3198293298585706e-01 7.4924215825119878e-01  5.4834951175161684e-01 1.3103960207656143e-01 7.4715064476023341e-01  5.4789759908765534e-01 1.3029840913695453e-01 7.4547988834730750e-01  5.4746732596401282e-01 1.2960338593842888e-01 7.4387198077742844e-01  5.4711943983259337e-01 1.2904978419317872e-01 7.4255818480315550e-01  5.4659995723869115e-01 1.2822908294173876e-01 7.4058385909883728e-01  5.4464462707624683e-01 1.2518126346880673e-01 7.3305912829380826e-01  5.4379438371286937e-01 1.2387909778226892e-01 7.2973617821190706e-01  5.4303497056605476e-01 1.2273158832029989e-01 7.2673556989557486e-01  5.4232472093188100e-01 1.2167249544607975e-01 7.2390067324058682e-01  5.4164559268663426e-01 1.2067290910033955e-01 7.2116405473723677e-01  5.4098286857126054e-01 1.1970950742322105e-01 7.1846969977342512e-01  5.4031444906304937e-01 1.1874931602315032e-01 7.1572908748213138e-01  5.3888756523754788e-01 1.1673201499734838e-01 7.0981125883724028e-01  5.3843024326172195e-01 1.1609446152561817e-01 7.0789557848502571e-01  5.3808549182293330e-01 1.1561762524769795e-01 7.0644401576779647e-01  5.3783380134931136e-01 1.1527184263854302e-01 7.0538014445815445e-01  5.3757243498036267e-01 1.1491657726008489e-01 7.0427019978421157e-01  5.3737775686588263e-01 1.1465476433486746e-01 7.0343996951611165e-01  5.3714305812256169e-01 1.1434066737177818e-01 7.0243670691666749e-01  5.3688148749437226e-01 1.1399233844082486e-01 7.0131565994859069e-01  5.3660598768406331e-01 1.1362737975004165e-01 7.0013161369231436e-01  5.3632175037129892e-01 1.1325287315195860e-01 6.9890639920441833e-01  5.3603414144498662e-01 1.1287601162635255e-01 6.9766288810585075e-01  5.3574928513544262e-01 1.1250484368017485e-01 6.9642755767101583e-01  5.3547461286847375e-01 1.1214895725931198e-01 6.9523282009687426e-01  5.3495680937548273e-01 1.1148423514640943e-01 6.9296993448476540e-01  5.3464670419834048e-01 1.1109000751598566e-01 6.9160803411370930e-01  5.3431978565303739e-01 1.1067707839475475e-01 6.9016748014178286e-01  5.3398002964604530e-01 1.1025088622386904e-01 6.8866491208546088e-01  5.3363132351895481e-01 1.0981648413992787e-01 6.8711714857987860e-01  5.3327618700650925e-01 1.0937724856441762e-01 6.8553492311134534e-01  5.3291558197297717e-01 1.0893454452235062e-01 6.8392217737370142e-01  5.3255085087329657e-01 1.0849014698326820e-01 6.8228468232185602e-01  5.3218348911487101e-01 1.0804594967131451e-01 6.8062902917234147e-01  5.3181345273057745e-01 1.0760202099450268e-01 6.7895480302524480e-01  5.3144136151883825e-01 1.0715913436503742e-01 6.7726476043431738e-01  5.3106809248388520e-01 1.0671835156926991e-01 6.7556286963297307e-01  5.3069233443165253e-01 1.0627823624098029e-01 6.7384296769872554e-01  5.3031602020699475e-01 1.0584119610340817e-01 6.7211366607950096e-01  5.2993612125851774e-01 1.0540365638915597e-01 6.7036113505405714e-01  5.2918680681128027e-01 1.0455122935828705e-01 6.6688489251914695e-01  5.2882668745924111e-01 1.0414667531694466e-01 6.6520480494777001e-01  5.2846596836520732e-01 1.0374470746010415e-01 6.6351594907446565e-01  5.2810095935133894e-01 1.0334155731216330e-01 6.6180043836255609e-01  5.2772942459217953e-01 1.0293472181593015e-01 6.6004774363673224e-01  5.2734265585795581e-01 1.0251496763750381e-01 6.5821611782628342e-01  5.2692064567737629e-01 1.0206116320128882e-01 6.5620945229070571e-01  5.2588175210531984e-01 1.0095837142338684e-01 6.5124071924087235e-01  5.2550879466876810e-01 1.0056747185241252e-01 6.4944696672403646e-01  5.2519387368858472e-01 1.0024006096882990e-01 6.4792720587646013e-01  5.2491630266325684e-01 9.9953667405182370e-02 6.4658367607492961e-01  5.2466762847047899e-01 9.9698852992043910e-02 6.4537689964753686e-01  5.2444498752831004e-01 9.9472152785862356e-02 6.4429399828308809e-01  5.2424825936368191e-01 9.9272986779734784e-02 6.4333523292004102e-01  5.2408143231350257e-01 9.9104973102520991e-02 6.4252079679484952e-01  5.2386808157926179e-01 9.8891805771195843e-02 6.4147672407537693e-01  5.2372678506925952e-01 9.8751713972749469e-02 6.4078364071260130e-01  5.2355425394812261e-01 9.8581362559291327e-02 6.3993614909425167e-01  5.2308264458674436e-01 9.8118617507315792e-02 6.3761421009940533e-01  5.2288167842626354e-01 9.7922724174695955e-02 6.3662233925558998e-01  5.2269895474771233e-01 9.7745451297267388e-02 6.3571896070362099e-01  5.2252644017574079e-01 9.7578857305649108e-02 6.3486466374026862e-01  5.2236033445590091e-01 9.7419193434255424e-02 6.3404079617460163e-01  5.2219704428704072e-01 9.7262937840959823e-02 6.3322963151925626e-01  5.2203066437905099e-01 9.7104393234114184e-02 6.3240189962098103e-01  5.2164703848020189e-01 9.6740910733152663e-02 6.3048947540060085e-01  5.2151772065608637e-01 9.6619036598937599e-02 6.2984356605724279e-01  5.2141275788621111e-01 9.6520433288207461e-02 6.2931871783894433e-01  5.2132416677256133e-01 9.6437454100977260e-02 6.2887530578350037e-01  5.2124820458004006e-01 9.6366487392227224e-02 6.2849479491862470e-01  5.2118269178386079e-01 9.6305418648353791e-02 6.2816640459171280e-01  5.2112634740763264e-01 9.6252996727905535e-02 6.2788380950479117e-01  5.2107830706870251e-01 9.6208373729901903e-02 6.2764274586388547e-01  5.2103779595428446e-01 9.6170795658559211e-02 6.2743938123054399e-01  5.2100439005963262e-01 9.6139843606337066e-02 6.2727162811687076e-01  5.2097762329750119e-01 9.6115065663969573e-02 6.2713717820719805e-01  5.2095730234834026e-01 9.6096268030757701e-02 6.2703508399890229e-01  5.2094317538136459e-01 9.6083206743816041e-02 6.2696409785704021e-01  5.2093490550179444e-01 9.6075563227546498e-02 6.2692253856995828e-01  5.2093114516425176e-01 9.6072093283261994e-02 6.2690363992135889e-01  5.2092666239946406e-01 9.6067968282825378e-02 6.2688110857352031e-01  5.2091853775472385e-01 9.6060491632331685e-02 6.2684026979231366e-01  5.2090666904909466e-01 9.6049570867307268e-02 6.2678060614295728e-01  5.2089009142876797e-01 9.6034318729864690e-02 6.2669726175514484e-01  5.2084960136472436e-01 9.5997075720906544e-02 6.2649366276440532e-01  5.2085264810510246e-01 9.5999849409261123e-02 6.2650899198735177e-01  5.2085067410632557e-01 9.5998015042175866e-02 6.2649906643381181e-01  5.2084853019235910e-01 9.5996031362451356e-02 6.2648828392761879e-01  5.2084706651862489e-01 9.5994678449163082e-02 6.2648092185506876e-01  5.2084720775329951e-01 9.5994808960800454e-02 6.2648163228141662e-01  5.2084924150534684e-01 9.5996688616033540e-02 6.2649186152896152e-01  5.2085317057166758e-01 9.6000319277273261e-02 6.2651162045531505e-01  5.2079989528464221e-01 9.5951485980325393e-02 6.2624359700089605e-01  5.2076765539418357e-01 9.5921919329355163e-02 6.2608135895692874e-01  5.2073436289505382e-01 9.5891408758122562e-02 6.2591377913947754e-01  5.2069972157519251e-01 9.5859688348685343e-02 6.2573935990070828e-01  5.2066361189119603e-01 9.5826653778655319e-02 6.2555749164373042e-01  5.2062599951537036e-01 9.5792278150714005e-02 6.2536799402690335e-01  5.2058658626283927e-01 9.5756294111562640e-02 6.2516935512272298e-01  5.2054466205977490e-01 9.5718058862115790e-02 6.2495798448602813e-01  5.2049851817728743e-01 9.5676021142549278e-02 6.2472525075754626e-01  5.2038374812224431e-01 9.5571628950137960e-02 6.2414605965314651e-01  5.2034031494348432e-01 9.5532184557680352e-02 6.2392675042081369e-01  5.2030242455174913e-01 9.5497808847378143e-02 6.2373536231311422e-01  5.2026849721439616e-01 9.5467059587385619e-02 6.2356393590698100e-01  5.2023758741670356e-01 9.5439071242838361e-02 6.2340771082287161e-01  5.2020934755947490e-01 9.5413522666049355e-02 6.2326494234854690e-01  5.2018351291478937e-01 9.5390168638223680e-02 6.2313430236606482e-01  5.2015993304019559e-01 9.5368868325153414e-02 6.2301503854663753e-01  5.2013852913752179e-01 9.5349546338584210e-02 6.2290675958770148e-01  5.2011935858738034e-01 9.5332250863795154e-02 6.2280976197018534e-01  5.2010253793416927e-01 9.5317083675069816e-02 6.2272464120423143e-01  5.2008844704975499e-01 9.5304384179134824e-02 6.2265332500574988e-01  5.2006952564244635e-01 9.5287344561963180e-02 6.2255754233467309e-01  5.2005677829627062e-01 9.5275874086588150e-02 6.2249300106446370e-01  5.2004205305172613e-01 9.5262629273281357e-02 6.2241843675417030e-01  5.2002487397901709e-01 9.5247182900829397e-02 6.2233143661515167e-01  5.1998904746926355e-01 9.5214976590675390e-02 6.2214997968970487e-01  5.1998570630917840e-01 9.5211971837192030e-02 6.2213305681940623e-01  5.1998457662822883e-01 9.5210955523676366e-02 6.2212733497219508e-01  5.1998455413288625e-01 9.5210935285911222e-02 6.2212722102907914e-01  5.1998513199126317e-01 9.5211455575231627e-02 6.2213014772174136e-01  5.1998521483891413e-01 9.5211531788819373e-02 6.2213056625868113e-01  5.1998339977885988e-01 9.5209903308275654e-02 6.2212136988655287e-01  5.1997347126677584e-01 9.5200988911128742e-02 6.2207106782106725e-01  5.1996921714464095e-01 9.5197168987688166e-02 6.2204951380273488e-01  5.1996628604253925e-01 9.5194536787257950e-02 6.2203466265085727e-01  5.1996454788916957e-01 9.5192975782035505e-02 6.2202585566660240e-01  5.1996398767039687e-01 9.5192472671923947e-02 6.2202301707165875e-01  5.1996437035008192e-01 9.5192816440536746e-02 6.2202495606770059e-01  5.1996545429298691e-01 9.5193790234302314e-02 6.2203044820937448e-01  5.1996694372140162e-01 9.5195129044704507e-02 6.2203799449549646e-01  5.1996100264994904e-01 9.5189806394336413e-02 6.2200788768540294e-01  5.1995460310927200e-01 9.5184066536253331e-02 6.2197545902824325e-01  5.1994898305851778e-01 9.5179026253546087e-02 6.2194697917974917e-01  5.1994427369067375e-01 9.5174803234721606e-02 6.2192311337652373e-01  5.1994070723445063e-01 9.5171605500220371e-02 6.2190503897967353e-01  5.1993725411962755e-01 9.5168510427118325e-02 6.2188753816684350e-01  5.1993478826399764e-01 9.5166301258283278e-02 6.2187504021778217e-01  5.1993175428