<?xml version="1.0"?>
<VTKFile type="UnstructuredGrid"  version="0.1"  >
<UnstructuredGrid>
<Piece  NumberOfPoints="4940" NumberOfCells="9650">
<Points>
<DataArray  type="Float64"  NumberOfComponents="3"  format="ascii">500 250 0  0 250 0  250 500 0  250 0 0  256.8885856082646 499.9050767557906 0  263.7719401218049 499.6203791065173 0  270.6448364229772 499.1461232471188 0  277.5020553257866 498.4826693209355 0  284.3383895508592 497.6305211460281 0  291.1486476865662 496.5903258312597 0  297.9276581259182 495.3628732847843 0  304.6702729675493 493.9490956196674 0  311.3713719748657 492.3500664368026 0  318.0258664141369 490.5670000199653 0  324.6287029687753 488.6012504015818 0  331.1748675330201 486.4543103455647 0  337.6593890460416 484.1278102064655 0  344.0773432429536 481.6235166997244 0  350.4238564271474 478.9433315480048 0  356.694109139292 476.0892900492477 0  362.88333985546 473.0635595140469 0  368.9868485575419 469.8684376402048 0  375.0000003153078 466.5063507640667 0  380.9182288257928 462.9798520074548 0  386.7370398729688 459.2916193419558 0  392.4520147244077 455.444453565817 0  398.0588135356345 451.4412761437442 0  403.5531785622926 447.285127045646 0  408.9309374414144 442.9791624087773 0  414.1880064015299 438.5266521049243 0  419.3203932989752 433.9309773069245 0  424.324200661095 429.1956279150535 0  429.1956286596235 424.3241998957182 0  433.9309780058756 419.3203925397119 0  438.5266527445345 414.1880056671062 0  442.9791630130591 408.9309367076756 0  447.2851276060475 403.5531778422888 0  451.4412766621026 398.0588128303826 0  455.4444540361634 392.4520140460735 0  459.2916197786263 386.7370392045948 0  462.9798524073514 380.9182281752347 0  466.5063511234856 374.9999996927758 0  469.8684379657123 368.9868479560565 0  473.0635598144817 362.8833392617846 0  476.0892903190255 356.6941085676214 0  478.9433317963513 350.4238558609745 0  481.6235169154735 344.0773427117675 0  484.12781039012 337.6593885555221 0  486.4543105028062 331.1748670749914 0  488.601250531677 324.6287025528375 0  490.5670001317469 318.0258660188321 0  492.3500665291326 311.3713716102628 0  493.949095695951 304.6702726271575 0  495.3628733416623 297.9276578347343 0  496.5903258712341 291.1486474470129 0  497.6305211749058 284.3383893426084 0  498.4826693388848 277.502055163614 0  499.1461232580606 270.6448362909296 0  499.6203791109319 263.7719400417897 0  499.9050767571306 256.8885855596534 0  499.9050767559877 243.1114143988867 0  499.6203791069493 236.2280598860241 0  499.1461232485393 229.3551635941651 0  498.4826693235677 222.4979446979962 0  497.6305211491849 215.6616104719064 0  496.5903258357701 208.8513523404629 0  495.3628732906988 202.0723419043604 0  493.9490956264813 195.3297270628552 0  492.3500664487791 188.6286280724281 0  490.5670000344809 181.9741336371959 0  488.6012504175981 175.3712970824318 0  486.4543103623226 168.8251325157939 0  484.1278102222298 162.3406109960628 0  481.6235167152198 155.9226567951971 0  478.9433315621651 149.5761436051346 0  476.0892900516498 143.3058908657982 0  473.063559513628 137.1166601437124 0  469.8684376406648 131.0131514433083 0  466.5063507675389 124.9999996907064 0  462.9798520124137 119.0817711822745 0  459.2916193464549 113.2629601339176 0  455.4444535642773 107.5479852733717 0  451.4412761528674 101.9411864767781 0  447.2851270583545 96.44682145403524 0  442.9791624165781 91.06906256805769 0  438.5266521117469 85.81199360630404 0  433.9309773156125 80.67960671046254 0  429.1956279150353 75.67579933888632 0  424.3241998888952 70.80437133373906 0  419.3203925223282 66.06902197812161 0  414.1880056411937 61.47334723289828 0  408.9309366751728 57.0208369601728 0  403.5531778009394 52.71487236176898 0  398.058812796452 48.55872331295853 0  392.4520140187753 44.55554594490843 0  386.7370391799677 40.70838020528396 0  380.9182281475119 37.02014757560744 0  374.9999996718656 33.49364886444181 0  368.9868479340393 30.13156202237255 0  362.8833392380029 26.93644017348339 0  356.6941085456942 23.91070967062674 0  350.4238558420009 21.0566681953261 0  344.0773426899492 18.37648307566465 0  337.6593885328982 15.87218960140942 0  331.1748670549786 13.54568949032341 0  324.6287025315056 11.39874946165088 0  318.0258660010876 9.432999863235466 0  311.3713716017894 7.649933468721599 0  304.6702726190621 6.050904302234756 0  297.9276578269805 4.637126656823085 0  291.148647441857 3.409674127905504 0  284.3383893425031 2.369478825079682 0  277.502055159398 1.517330660648639 0  270.6448362875833 0.853876741662134 0  263.7719400401456 0.3796208889774277 0  256.8885855592052 0.09492324285704967 0  243.1114143979462 0.09492324403817065 0  236.2280598850882 0.3796208931023841 0  229.3551635938215 0.8538767514891958 0  222.4979446968584 1.517330676558146 0  215.6616104703111 2.369478851036291 0  208.8513523382973 3.409674164591252 0  202.0723419066374 4.637126708856528 0  195.3297270659513 6.050904372824903 0  188.628628074828 7.649933550613184 0  181.9741336377093 9.432999965373938 0  175.3712970793675 11.39874958336037 0  168.8251325057572 13.54568964112298 0  162.340610986655 15.87218978129263 0  155.9226567874317 18.37648328793418 0  149.576143602509 21.05666843898663 0  143.3058908718157 23.91070994551046 0  137.1166601505524 26.93644048291054 0  131.0131514451933 30.13156235831508 0  124.9999996848412 33.49364923584736 0  119.0817711715717 37.0201479941652 0  113.2629601211624 40.70838066187849 0  107.5479852622251 44.55554644345162 0  101.9411864693332 48.55872385260452 0  96.44682143286516 52.71487295812284 0  91.06906254351222 57.02083760363669 0  85.81199358272519 61.4733479087879 0  80.67960667988106 66.06902271253972 0  75.67579930062769 70.80437212218331 0  70.80437129287643 75.67580015310926 0  66.06902193673014 80.67960752263491 0  61.47334718684866 85.81199441168215 0  57.02083692524275 91.0690633672404 0  52.71487232786438 96.44682224262129 0  48.55872328070024 101.941187247437 0  44.55554591578033 107.5479860232332 0  40.7083801742321 113.2629608675606 0  37.02014754791168 119.0817718975441 0  33.49364883372994 125.000000381329 0  30.13156199866361 131.0131521097709 0  26.9364401549829 137.1166607985551 0  23.91070965524918 143.3058914868915 0  21.05666818346614 149.576144185037 0  18.37648306853811 155.9226573275967 0  15.8721895918909 162.3406114925245 0  13.54568948170046 168.8251329701392 0  11.39874945301878 175.3712974960928 0  9.432999857087736 181.9741340206533 0  7.649933466342702 188.6286284076045 0  6.050904301250966 195.3297273853278 0  4.637126656808988 202.0723421730917 0  3.409674127767772 208.8513525589684 0  2.369478824521138 215.6616106615248 0  1.517330660909465 222.4979448382452 0  0.8538767414496533 229.355163714981 0  0.3796208887135322 236.2280599646376 0  0.09492324266324204 243.1114144478261 0  0.0949232442452228 256.8885856095658 0  0.3796208935834784 263.7719401236316 0  0.8538767530323526 270.6448364248016 0  1.517330679476544 277.5020553295092 0  2.369478854618649 284.3383895555228 0  3.409674170191892 291.1486476952655 0  4.6371267162381 297.9276581311522 0  6.050904381420935 304.6702729724059 0  7.649933562385399 311.3713719716595 0  9.43299997979841 318.0258664133013 0  11.3987495994252 324.6287029719946 0  13.54568965885832 331.174867545904 0  15.87218979367188 337.6593890464085 0  18.37648329843151 344.0773432384132 0  21.05666844777872 350.423856417535 0  23.91070995156048 356.6941091410045 0  26.93644048988043 362.8833398632205 0  30.13156235982007 368.9868485575877 0  33.49364924138357 375.0000003247478 0  37.0201480006036 380.9182288389023 0  40.70838066758398 386.7370398875706 0  44.55554644477201 392.4520147396792 0  48.55872386086904 398.0588135419111 0  52.71487295981296 403.5531785693063 0  57.02083760525949 408.9309374584583 0  61.47334790862246 414.1880064170849 0  66.06902271205095 419.320393319588 0  70.80437211216579 424.3242006890749 0  75.67580013809859 429.195628692521 0  80.6796075127923 433.930978054209 0  85.81199439754931 438.5266528008431 0  91.06906334717917 442.9791630582355 0  96.44682221438322 447.2851276501571 0  101.9411872243843 451.441276702356 0  107.5479859945825 455.4444540643537 0  113.2629608446994 459.2916198108319 0  119.0817718768376 462.9798524393601 0  125.0000003647644 466.5063511567065 0  131.0131521012763 469.8684379967393 0  137.1166607840049 473.0635598376539 0  143.3058914748804 476.0892903390826 0  149.5761441732679 478.9433318113714 0  155.9226573130112 481.6235169255377 0  162.3406114779862 484.1278104026658 0  168.8251329570439 486.4543105138039 0  175.3712974805475 488.601250542119 0  181.9741340135204 490.5670001408953 0  188.6286284005059 492.3500665318597 0  195.3297273788229 493.9490956972913 0  202.0723421640089 495.3628733414168 0  208.8513525529672 496.5903258712308 0  215.6616106544547 497.6305211744985 0  222.4979448327038 498.4826693384772 0  229.3551637102845 499.1461232581612 0  236.2280599621369 499.6203791111485 0  243.1114144470173 499.9050767573145 0  155.2373389820306 474.8197567317462 0  25.36256300907667 153.9152755065208 0  432.3709625126712 412.6214396304305 0  6.013151705810699 246.637913163471 0  246.6379131630491 493.986848294322 0  338.6995838441862 22.68244767887072 0  477.3175523131281 338.6995838660569 0  493.9868482700757 246.6379131399102 0  246.6201155078769 6.218451882810491 0  417.6179310263282 72.7156044707053 0  102.2232990934413 445.0100869616822 0  63.66330858966404 92.20354579482142 0  391.3105220491464 50.73522820883105 0  72.79295043967942 418.0702734974704 0  448.290574428537 108.25674339002 0  402.4604651193511 440.7462829841712 0  97.55317348421397 59.11376320116034 0  136.7376477664901 33.58246472647134 0  363.3288394375288 465.6947312928271 0  44.0678766556007 381.0860953771871 0  469.6905266180034 142.3890690100806 0  22.68244791668644 338.6995843487432 0  338.699584349159 477.317552078365 0  173.389488083762 18.6681884918202 0  483.4809734778481 179.7121987795732 0  13.50237455842738 306.4709525540879 0  305.9825168523021 487.24416992
[...]
<PointData  Vectors="f_12"> 
<DataArray  type="Float64"  Name="f_12"  NumberOfComponents="3" format="ascii">4.5743190675307455e-01 1.8874858431897376e-01 1.8411962993487116e-01  4.8812444601951938e-01 4.8249574147718294e-01 1.6918632741778178e-01  4.5823991616054244e-01 1.3343189786312745e-01 2.2108719444585140e-01  5.8649748399642165e-01 4.0212929611475540e-01 7.3085325096611509e-01  4.5830982943033133e-01 1.3262625553347085e-01 2.2198140625970678e-01  4.5837470522597396e-01 1.3190708349737532e-01 2.2279501172558527e-01  4.5843930699909341e-01 1.3121255231770160e-01 2.2359298539889247e-01  4.5849905611210862e-01 1.3058918323627866e-01 2.2432023486989186e-01  4.5855573080547085e-01 1.3001442362619359e-01 2.2500069750465848e-01  4.5860865602556694e-01 1.2949013007815596e-01 2.2562911604095964e-01  4.5865776778652156e-01 1.2901431890963116e-01 2.2620620732841931e-01  4.5870336855031579e-01 1.2858126959306171e-01 2.2673711881613098e-01  4.5874477794359880e-01 1.2819490662475494e-01 2.2721535142704577e-01  4.5878154488305556e-01 1.2785752153016264e-01 2.2763677831073550e-01  4.5880977492417280e-01 1.2760303201906598e-01 2.2795775939062798e-01  4.5884140020957609e-01 1.2731817551609692e-01 2.2831730953710380e-01  4.5885761060122238e-01 1.2717595517306660e-01 2.2849941719805564e-01  4.5887557003688995e-01 1.2701685621892306e-01 2.2870211580817915e-01  4.5888708717636817e-01 1.2691577673847032e-01 2.2883158053618921e-01  4.5889432484848880e-01 1.2685200869587013e-01 2.2891313596609769e-01  4.5889788575762214e-01 1.2681914362425883e-01 2.2895419691293029e-01  4.5889278385399102e-01 1.2686377480644540e-01 2.2889704502811470e-01  4.5888219718385026e-01 1.2695660186219582e-01 2.2877822014722199e-01  4.5887113309570310e-01 1.2705154544319941e-01 2.2865527881364259e-01  4.5885463756441652e-01 1.2719499399309350e-01 2.2847085864912878e-01  4.5883093682629289e-01 1.2740508873139719e-01 2.2820352845125366e-01  4.5879926291493556e-01 1.2768993912993884e-01 2.2784390671148730e-01  4.5876789429509623e-01 1.2797310654967736e-01 2.2748722634568558e-01  4.5873242313301810e-01 1.2829776205747617e-01 2.2708137983042045e-01  4.5868774790660893e-01 1.2871579111877265e-01 2.2656497272062134e-01  4.5864237131889368e-01 1.2914679249183064e-01 2.2603688649815012e-01  4.5859180073290712e-01 1.2963836663927369e-01 2.2544197226961740e-01  4.5853687004688304e-01 1.3018489669491407e-01 2.2478865352412686e-01  4.5848033260448368e-01 1.3076016218335337e-01 2.2410905299372497e-01  4.5841606505221183e-01 1.3143570031395432e-01 2.2332419329726125e-01  4.5834960232251271e-01 1.3215650912480842e-01 2.2249998004303767e-01  4.5828342014654677e-01 1.3289513160814789e-01 2.2166749897566115e-01  4.5821109068275917e-01 1.3373588854502094e-01 2.2073857777585415e-01  4.5813295961018413e-01 1.3468723923664638e-01 2.1971052480310094e-01  4.5805530050837190e-01 1.3567459507835930e-01 2.1866499100140990e-01  4.5797891374250183e-01 1.3669091993282814e-01 2.1761094559379432e-01  4.5789850598448251e-01 1.3782415234408663e-01 2.1646519963079500e-01  4.5781450714407357e-01 1.3908127219873237e-01 2.1522639773131386e-01  4.5773203765427029e-01 1.4040045271273041e-01 2.1396165116276100e-01  4.5764885059361321e-01 1.4183752607465192e-01 2.1262493436847441e-01  4.5756637553501728e-01 1.4338203429149532e-01 2.1123106431947455e-01  4.5748609579661709e-01 1.4503136601382913e-01 2.0979060044942294e-01  4.5740919133018226e-01 1.4678355384961964e-01 2.0831179293147470e-01  4.5733358552051684e-01 1.4874437754516148e-01 2.0672090206767224e-01  4.5726361596810472e-01 1.5082528931281147e-01 2.0509530607240997e-01  4.5720083161504183e-01 1.5305717746076589e-01 2.0342641817926638e-01  4.5714516640789682e-01 1.5547297673362817e-01 2.0169463706666532e-01  4.5710001305941927e-01 1.5805557495222725e-01 1.9993008328710149e-01  4.5706608740028493e-01 1.6090576581556756e-01 1.9807848431090957e-01  4.5704676381819886e-01 1.6396893758773759e-01 1.9619119555145972e-01  4.5704456291234075e-01 1.6724713653089696e-01 1.9428170719194279e-01  4.5706291410576999e-01 1.7084174480645792e-01 1.9231088987762671e-01  4.5710540782963222e-01 1.7472689713587702e-01 1.9031472232047711e-01  4.5717347424279220e-01 1.7891504521373952e-01 1.8829232307050683e-01  4.5726775799350905e-01 1.8331759335682171e-01 1.8629937818929093e-01  4.5760870007062848e-01 1.9408098908983051e-01 1.8206072093222839e-01  4.5784528654424672e-01 1.9999918605680761e-01 1.8000816561073296e-01  4.5813814550872128e-01 2.0639524054317587e-01 1.7799767168892855e-01  4.5850564494797408e-01 2.1356838613936485e-01 1.7595461295952161e-01  4.5895208313468622e-01 2.2138176778543595e-01 1.7398105328376370e-01  4.5948679082916977e-01 2.2994393319815196e-01 1.7205541591728915e-01  4.6012912032902897e-01 2.3934300736324404e-01 1.7023211779661310e-01  4.6089329245121197e-01 2.4970415406015647e-01 1.6850318480311130e-01  4.6179284190210412e-01 2.6105813008171613e-01 1.6691337538561676e-01  4.6284552738728513e-01 2.7349237710513008e-01 1.6549275772287950e-01  4.6409908939658956e-01 2.8740093116037646e-01 1.6424452073093365e-01  4.6554790615783559e-01 3.0255821910128716e-01 1.6324681935734822e-01  4.6723598068634647e-01 3.1926662213034140e-01 1.6251212571906901e-01  4.6921926235642170e-01 3.3784588075392336e-01 1.6210605302672312e-01  4.7152762741260085e-01 3.5834459270330571e-01 1.6207559232203728e-01  4.7420420503129229e-01 3.8085261103782275e-01 1.6250872174945158e-01  4.7730430857229278e-01 4.0553710059576564e-01 1.6345820242523251e-01  4.8089934077711854e-01 4.3253660170685515e-01 1.6504530987935576e-01  4.8507691889803262e-01 4.6200584343247530e-01 1.6738847808668245e-01  4.8991114804904501e-01 4.9384846824266976e-01 1.7060106811821948e-01  4.9541534803720477e-01 5.2744862759174915e-01 1.7477930875564224e-01  5.0191598260634751e-01 5.6361529755975703e-01 1.8036174691760409e-01  5.0940591972838711e-01 6.0094512229359631e-01 1.8750263296966771e-01  5.1802774850634337e-01 6.3862797013540318e-01 1.9656775281810404e-01  5.2787758867057943e-01 6.7518002626995810e-01 2.0788617692461159e-01  5.3974173102863032e-01 7.1135964170559229e-01 2.2226007340729526e-01  5.5927843783560438e-01 7.5243109499202177e-01 2.5147626872497442e-01  5.9517818565880942e-01 7.6063255286207132e-01 3.3451442354900185e-01  6.2983112045449052e-01 6.4635612063093895e-01 5.4797983015746621e-01  6.0484549139005950e-01 3.4107488691624638e-01 8.3993847174056580e-01  5.1984739041371419e-01 1.2157518065217750e-01 6.3635301609953210e-01  4.7189994989279194e-01 1.3492633869899073e-01 3.1713108501124765e-01  4.6905874305325862e-01 2.7379041245259045e-01 2.1167429509110883e-01  4.9205246948263526e-01 4.8346958097411535e-01 1.9747460786931187e-01  5.2255884986078327e-01 6.4484802723946988e-01 2.1771851957868887e-01  5.5341243734871437e-01 7.3378143629478765e-01 2.5472178506787141e-01  5.8521564635687340e-01 7.6248663097207470e-01 3.1257357780882128e-01  6.1470954687285084e-01 7.4235209324028484e-01 3.9654783865642285e-01  6.3575701957913588e-01 6.9311256109979802e-01 4.9142594714725568e-01  6.4547524129028999e-01 6.2793340161983868e-01 5.8621265252547572e-01  6.4522798391857017e-01 5.5315682106489328e-01 6.7386152772156860e-01  6.4270832666326094e-01 5.0880161602430152e-01 7.1916095109658218e-01  6.4095909626721881e-01 4.9028060185561784e-01 7.3960933154050734e-01  6.4266783212378908e-01 5.1295053053434136e-01 7.1856119298035048e-01  6.4386610483495699e-01 5.6792966425182023e-01 6.5763460285867947e-01  6.3822631390029938e-01 6.4355826804083693e-01 5.5936144417516298e-01  6.1670476509988481e-01 7.1348468395095177e-01 4.3857409668190206e-01  5.7409692701682991e-01 7.3437272722694813e-01 3.2025171296942095e-01  5.1829854471709758e-01 6.1319436678673434e-01 2.3213081194835061e-01  4.7461018772415037e-01 3.4696622488371304e-01 1.9353936869793295e-01  4.6038360928747563e-01 1.5723103771089608e-01 2.2345799057897256e-01  4.7251355875194162e-01 9.3179549826589700e-02 3.3718505920709790e-01  4.9602218337173387e-01 8.0586613859906189e-02 4.9251262071860546e-01  5.1387314201723910e-01 8.9628864614715170e-02 5.9448913002043802e-01  5.2031272217491198e-01 1.0062527154919765e-01 6.3076038558176328e-01  5.4242055488741325e-01 1.5823819993508953e-01 7.3631615604710721e-01  5.5579734099042633e-01 5.4620990874429942e-01 4.5601142559474350e-01  4.8319598976655603e-01 4.0333564695466223e-01 2.1977670537683403e-01  4.6285878668552022e-01 1.2043997023861609e-01 2.5996553637733244e-01  4.7406047236557441e-01 8.4068106307506260e-02 3.5093916965261734e-01  4.7962939802397869e-01 8.1273149798589586e-02 3.8646523048529502e-01  4.8056628313124267e-01 8.1607080773062363e-02 3.9228637348922057e-01  4.8100777146226475e-01 8.1245006145125337e-02 3.9532235618726697e-01  4.8092580414943153e-01 8.1304535245031576e-02 3.9476553540726134e-01  4.8017742296772559e-01 8.1599804052938374e-02 3.8985130613222169e-01  4.7927315784032054e-01 8.2027555947171565e-02 3.8377224181074854e-01  4.7552351768557549e-01 8.2413032020671115e-02 3.6056940949395333e-01  4.6567005764928249e-01 9.9891366862657621e-02 2.8861333555466817e-01  4.6361525616219840e-01 2.0410218571110303e-01 2.2062675912671290e-01  5.1355813581306398e-01 5.2926678153967444e-01 2.8242137850333210e-01  5.8509199602627826e-01 5.5675588671027898e-01 5.5994320367384598e-01  5.7329702417834683e-01 2.7142698343895738e-01 7.9903272049438789e-01  5.2319913917296101e-01 1.1522271080670433e-01 6.5197651658260680e-01  5.0468658608786832e-01 8.6862270178980655e-02 5.4573875486961843e-01  4.9882376164829589e-01 8.1003732194578140e-02 5.0948554200518192e-01  4.8776525135233884e-01 7.8378864216370706e-02 4.4195713383560919e-01  4.7181428787227547e-01 8.8468192273939289e-02 3.3534313665779342e-01  4.6045946262303128e-01 1.3239054029049482e-01 2.3865400385977442e-01  4.6298779402483287e-01 2.4234268013975963e-01 1.8934468435765656e-01  4.8490615598222597e-01 4.4275447493083592e-01 1.8815646847548553e-01  5.2255191416471447e-01 6.4323819543220218e-01 2.2310329076267854e-01  5.6166447597395242e-01 7.3817051515593446e-01 2.7770783440116520e-01  5.9134279231222697e-01 7.5557197087408379e-01 3.3479298936523261e-01  6.0910131223574671e-01 7.4749042700939550e-01 3.7940276216155272e-01  6.1719768853331625e-01 7.3866141489388348e-01 4.0412913400587652e-01  6.1784615296954093e-01 7.3871317491502952e-01 4.0514388903135762e-01  6.1188557127275478e-01 7.4719474046243051e-01 3.8476916250415855e-01  5.9897363862652209e-01 7.5935534271069371e-01 3.4582406903867552e-01  5.7904705695430725e-01 7.6034491344720379e-01 3.0025060477719800e-01  5.5234755465386054e-01 7.3578257862744811e-01 2.5025204150678776e-01  5.2306845710165750e-01 6.5461599436017692e-01 2.1363427480033270e-01  4.9538741440047906e-01 5.1848820680063901e-01 1.8931996149879865e-01  4.7313663295297237e-01 3.4974649081927445e-01 1.8310789507432707e-01  4.6224659944143875e-01 2.0253173042603562e-01 2.1157251095081209e-01  4.6958760881707523e-01 1.1558878119851049e-01 3.1175850698596985e-01  5.0923632353161119e-01 1.0389434175618294e-01 5.7649895279148533e-01  5.8522514485260202e-01 2.4114060974400503e-01 8.5948701640920655e-01  6.3552848370333270e-01 5.3888447095004721e-01 6.8709727090638106e-01  6.2400523294494847e-01 7.2214617487873434e-01 4.3471433291783784e-01  5.9148394560148976e-01 7.7413282860332122e-01 3.1125267741973917e-01  5.6850085341644996e-01 7.6414390552228917e-01 2.6480867631929200e-01  5.5537881272286660e-01 7.4461036378427192e-01 2.4446494223228699e-01  5.4563317223010011e-01 7.2502819621940617e-01 2.3055986458307870e-01  5.3728296288498245e-01 7.0406177383036639e-01 2.1922979060574738e-01  5.2945965086284907e-01 6.8061197650553773e-01 2.0938125213029921e-01  5.2238207203271880e-01 6.5584707102138795e-01 2.0100487896664851e-01  5.1584155188109670e-01 6.2983012764443513e-01 1.9382818407105759e-01  5.0996342077966017e-01 6.0379290296477583e-01 1.8774336307723255e-01  5.0468992395933632e-01 5.7815315438008374e-01 1.8266244562475972e-01  4.9990531502040081e-01 5.5295658396570768e-01 1.7834650405296540e-01  4.9556863365630960e-01 5.2845699263002721e-01 1.7472372138549613e-01  4.9165609866187066e-01 5.0493731795454455e-01 1.7168860006991513e-01  4.8494673829620860e-01 4.6125850380411304e-01 1.6715056594408245e-01  4.8208999845581357e-01 4.4125513424242324e-01 1.6552578257018619e-01  4.7949514765443335e-01 4.2228491619645581e-01 1.6425794075402655e-01  4.7716242243891799e-01 4.0452806199354702e-01 1.6330140490389486e-01  4.7505887036343319e-01 3.8788544343844089e-01 1.6262815597809641e-01  4.7316119425233899e-01 3.7230554340495903e-01 1.6220175493466440e-01  4.7144833135627384e-01 3.5772361155380350e-01 1.6199589624472252e-01  4.6990397804599665e-01 3.4410336497397681e-01 1.6198230252637782e-01  4.6850956052678328e-01 3.3136374284999992e-01 1.6214245233383251e-01  4.6725076005484162e-01 3.1945069586494879e-01 1.6245516218359360e-01  4.6611492988801717e-01 3.0830547661996455e-01 1.6290937139929301e-01  4.6509420220270242e-01 2.9792996004863087e-01 1.6347559659734534e-01  4.6416386867185688e-01 2.8811381357112570e-01 1.6415875116637343e-01  4.6332351562353125e-01 2.7890307297194750e-01 1.6494087617217598e-01  4.6257217027763975e-01 2.7033517550601638e-01 1.6580279035833112e-01  4.6188297985100996e-01 2.6214288780692646e-01 1.6676154484431707e-01  4.6126423359892105e-01 2.5446244753547348e-01 1.6778964137103444e-01  4.6071727157988962e-01 2.4736114908987278e-01 1.6885958370295553e-01  4.6022215591761229e-01 2.4060579026209236e-01 1.7000473948669265e-01  4.5977685775600652e-01 2.3423202082521155e-01 1.7119252028349133e-01  4.5937840502742783e-01 2.2820647513333395e-01 1.7243181823772846e-01  4.5902352933545670e-01 2.2251894221302215e-01 1.7371191995842936e-01  4.5870686277715683e-01 2.1712329093903354e-01 1.7503164552423980e-01  4.5842572874733406e-01 2.1199639824332556e-01 1.7639158302421468e-01  4.5818064545128756e-01 2.0718907952698992e-01 1.7776718211488068e-01  4.5796529952237031e-01 2.0261211833319684e-01 1.7917530167723830e-01  4.5777663378174460e-01 1.9824095852415746e-01 1.8061445835015238e-01  4.5761699949497009e-01 1.9415484473794797e-01 1.8205300933501994e-01  4.5747967983205889e-01 1.9022912457515265e-01 1.8352587264705142e-01  4.5736429466112793e-01 1.8649998826810155e-01 1.8501028665622679e-01  4.5726992209155687e-01 1.8296871480170171e-01 1.8650139525598575e-01  4.5719433967299911e-01 1.7961010263985455e-01 1.8800119351645977e-01  4.5713610061767934e-01 1.7641770508569590e-01 1.8950571686183618e-01  4.5709372064815246e-01 1.7336958733434077e-01 1.9101948880029207e-01  4.5706574794945826e-01 1.7044362010320455e-01 1.9254716748473152e-01  4.5705161652481791e-01 1.6770727480675873e-01 1.9404680283680886e-01  4.5704980464528439e-01 1.6511352768738974e-01 1.9553692565387398e-01  4.5705911157525930e-01 1.6258158089731745e-01 1.9705755354244237e-01  4.5707860589056259e-01 1.6020629472141523e-01 1.9854842706734588e-01  4.5710717490541664e-01 1.5797052896536365e-01 2.0001305241439057e-01  4.5714406292578719e-01 1.5582442269353045e-01 2.0147599267012334e-01  4.5718808010812501e-01 1.5378992906678701e-01 2.0291750710003195e-01  4.5723923884038942e-01 1.5183844866332932e-01 2.0435445488106263e-01  4.5729488728074713e-01 1.5001789342861219e-01 2.0574310973994567e-01  4.5735641151562673e-01 1.4826634800035840e-01 2.0712790041074264e-01  4.5742157360133107e-01 1.4661616566985125e-01 2.0847647289342469e-01  4.5749059845581164e-01 1.4504087585732187e-01 2.0980568695463009e-01  4.5756328496046361e-01 1.4353127459046477e-01 2.1111972955508948e-01  4.5763696858718422e-01 1.4213244758763000e-01 2.1237627000614234e-01  4.5771165718945217e-01 1.4081688581940779e-01 2.1359119870980561e-01  4.5778903684207434e-01 1.3954403852235686e-01 2.1479838841218285e-01  4.5786585917132211e-01 1.3836132293718792e-01 2.1595053911555215e-01  4.5794192083651636e-01 1.3725878044722373e-01 2.1705213349568267e-01  4.5801798332558330e-01 1.3621269888277751e-01 2.1812152499490250e-01  4.5809345013728126e-01 1.3522461990172932e-01 2.1915418356985322e-01  4.5816638904420887e-01 1.3431345375661177e-01 2.2012725998709248e-01  4.5720385377264555e-01 1.5318302824339589e-01 2.0336324484930618e-01  6.2987043131325504e-01 5.3421539966177589e-01 6.9432320030605410e-01  4.5841191179341745e-01 1.3148956195679509e-01 2.2326715747627146e-01  4.9025282040274271e-01 4.9612274683926649e-01 1.7068701545292553e-01  4.5817439460837178e-01 1.3422406729318720e-01 2.2022764593942779e-01  6.1429270446289552e-01 3.5636352443086966e-01 8.3102548385459951e-01  4.5742350243225521e-01 1.4648879927409372e-01 2.0856827619395885e-01  4.5754295616805596e-01 1.9224164359911089e-01 1.8274275030785908e-01  5.8466736177677414e-01 5.4778830869484973e-01 5.8746772853293139e-01  6.1436043273626184e-01 4.2908677032310849e-01 7.7524952323778429e-01  4.5712131166215619e-01 1.7539877192394529e-01 1.9000793673151622e-01  6.1840519303764041e-01 6.8216702840749788e-01 4.8448055299596188e-01  5.2824605638057720e-01 6.4886868600421932e-01 2.4208913203812654e-01  4.5771244551157680e-01 1.9662324522922256e-01 1.8117841874886115e-01  5.0633746258179435e-01 5.8615695422560521e-01 1.8455383928021504e-01  4.5871633312849502e-01 1.2845706256240227e-01 2.2688986105907968e-01  5.2461458996717347e-01 6.1702948576150274e-01 2.5636659797402495e-01  5.0072199504396753e-01 9.2220535011138083e-02 5.2365509353874262e-01  4.5885530023174831e-01 1.2719834253429652e-01 2.2847223809427597e-01  4.5959824444699776e-01 2.3155391632049940e-01 1.7173588658639322e-01  4.7605383766080078e-01 3.9570223737779175e-01 1.6304937791621724e-01  4.6383721665843453e-01 2.8456812256599284e-01 1.6444874170990054e-01  4.5883179219624493e-01 1.2741122652256834e-01 2.2820409740544084e-01  4.6752173569857486e-01 9.1582703252490072e-02 3.0482556494235941e-01  4.6374912076075314e-01 2.8357118445722990e-01 1.6457283737944212e-01  4.6941246278967597e-01 3.3963334160735142e-01 1.6203623012891633e-01  4.5868275614127824e-01 1.2878410392657974e-01 2.2649273325872182e-01  4.5758108100891798e-01 1.4319617592014822e-01 2.1142121490921820e-01  5.3422440900449930e-01 6.9525053940185910e-01 2.1538985419480253e-01  5.0781986358373221e-01 5.4756912736096819e-01 2.3521336453941646e-01  4.5707470105542136e-01 1.6018110438840386e-01 1.9854858743813095e-01  4.5800195150581602e-01 1.3639765014818458e-01 2.1792068242337609e-01  4.8033266262349733e-01 8.1542518008215076e-02 3.9087086692632983e-01  4.5993863722412587e-01 2.3658511999377876e-01 1.7075889114057910e-01  4.7633967890189527e-01 3.9806690747186696e-01 1.6303318784887932e-01  4.5849538826405989e-01 1.3063588263644954e-01 2.2427042849993062e-01  6.3004966379186644e-01 6.6984032268627769e-01 5.1577829147876531e-01  4.7992139794527378e-01 3.6476906231755396e-01 2.1512479212418506e-01  4.5788147090656217e-01 1.3814189838534760e-01 2.1617232851415083e-01  4.5706398773528617e-01 1.6189790443871360e-01 1.9748197634473991e-01  5.0743520075848481e-01 5.9170914425626087e-01 1.8531360189048277e-01  4.9715626475900809e-01 8.2470020836453106e-02 4.9819192059208550e-01  4.5708819837502529e-01 1.7318236383535443e-01 1.9110601104187072e-01  4.5878995349307672e-01 1.2778482631596333e-01 2.2773109137006173e-01  4.5721272972895716e-01 1.5266346231408240e-01 2.0372506236150723e-01  4.6824347242411501e-01 9.7297335337155205e-02 3.0589902783986661e-01  6.2965808739053719e-01 5.9667887313864632e-01 6.1126173902730929e-01  4.5839713572238988e-01 2.1148519616088648e-01 1.7653897576852606e-01  5.5330896705588883e-01 7.4213829134117071e-01 2.4265012529307189e-01  4.5737495065492517e-01 1.4780295674391825e-01 2.0750766966209067e-01  4.5820402282007333e-01 1.3383452311458710e-01 2.2063764976246664e-01  4.5832722389756486e-01 2.1008588529755476e-01 1.7693237833364953e-01  4.6356774755438240e-01 1.2956348652764729e-01 2.5933469718155533e-01  4.6101619141593148e-01 2.5126790363517104e-01 1.6826266256750030e-01  5.6465695181707665e-01 7.5852729733857460e-01 2.5964804974186301e-01  4.5774343594224703e-01 1.4023263276586295e-01 2.1412747760451406e-01  4.5733064058