<?xml version="1.0"?>
<VTKFile type="UnstructuredGrid"  version="0.1"  >
<UnstructuredGrid>
<Piece  NumberOfPoints="7288" NumberOfCells="14083">
<Points>
<DataArray  type="Float64"  NumberOfComponents="3"  format="ascii">239.8 188 0  250.2 180 0  258.2 172.4 0  257 169.4 0  259.9 157.4 0  258.7 150.3 0  261 143.5 0  251.7 144.4 0  250 138.7 0  247 138.1 0  245.2 130.8 0  247.3 126.4 0  242.7 118.6 0  231.2 107.7 0  226 102.4 0  226.5 93.90000000000001 0  224.5 91.19999999999999 0  224.5 84.09999999999999 0  234.5 73.80000000000001 0  228.4 68.90000000000001 0  230 70 0  233.4 68 0  222.7 61.5 0  220.6 45.5 0  223.4 49.40000000000001 0  224 47 0  221.8 43.09999999999999 0  221 38.40000000000001 0  219.5 38.5 0  219.4 41.69999999999999 0  217.1 36.90000000000001 0  209.7 36 0  209.5 31.69999999999999 0  205.1 29.90000000000001 0  201.5 30.40000000000001 0  199.2 38.69999999999999 0  201.8 41.40000000000001 0  194.8 53.80000000000001 0  196.1 57.69999999999999 0  193 59 0  191.4 66.09999999999999 0  193.5 66.5 0  194.1 64.40000000000001 0  195.6 64.69999999999999 0  195.4 72.40000000000001 0  199.5 77.30000000000001 0  197.7 86.90000000000001 0  200.6 87.5 0  201.5 91 0  198 94.80000000000001 0  198.6 100 0  197.3 105.4 0  198 109.5 0  197 112.7 0  198.3 116.1 0  201.3 122 0  207.2 121 0  208.1 126.7 0  205.6 127.9 0  209.1 134.9 0  210.9 144.4 0  210.1 147.9 0  213 148.4 0  215.4 149.3 0  215.1 152.8 0  219.9 159.7 0  220.3 163.2 0  218.7 164.9 0  219.9 166.7 0  221.9 169.7 0  220 170.3 0  224.9 174.7 0  229.8 177.4 0  229.7 181 0  228 172.9 0  239 178 0  240.4 180 0  239 181.5 0  241.2 185.9 0  242.95 187.99 0  240.5875 187.9975 0  241.375 187.995 0  242.1625 187.9925 0  243.6090909090879 187.2636363636397 0  244.2681818181765 186.5372727272785 0  244.9272727272692 185.810909090913 0  245.5863636363531 185.0845454545571 0  246.245454545445 184.3581818181923 0  246.9045454545351 183.6318181818295 0  247.5636363636303 182.9054545454612 0  248.2227272727197 182.1790909090992 0  248.8818181818179 181.4527272727275 0  249.5409090909066 180.7263636363664 0  250.8666666666961 179.3666666666387 0  251.5333333334033 178.7333333332668 0  252.2000000000994 178.0999999999055 0  252.8666666668011 177.466666666539 0  253.5333333335083 176.8333333331671 0  254.2000000002044 176.1999999998058 0  254.8666666669005 175.5666666664445 0  255.5333333336077 174.9333333330727 0  256.2000000002685 174.2999999997449 0  256.8666666668457 173.6666666664966 0  257.5333333334283 173.033333333243 0  257.9000000000077 171.6500000000191 0  257.6000000000015 170.9000000000038 0  257.2999999999954 170.1499999999885 0  257.2230769230778 168.4769230769195 0  257.4461538461543 167.5538461538442 0  257.6692307692309 166.6307692307688 0  257.8923076923074 165.7076923076935 0  258.115384615384 164.7846153846181 0  258.3384615384605 163.8615384615427 0  258.5615384615395 162.9384615384572 0  258.784615384616 162.0153846153819 0  259.0076923076926 161.0923076923065 0  259.2307692307691 160.1692307692311 0  259.4538461538457 159.2461538461558 0  259.6769230769222 158.3230769230804 0  259.750000000001 156.512500000006 0  259.6000000000014 155.6250000000082 0  259.4500000000029 154.7375000000176 0  259.3000000000018 153.8500000000108 0  259.1500000000007 152.962500000004 0  259.0000000000004 152.0750000000026 0  258.849999999999 151.187499999994 0  258.9875000000052 149.4499999999846 0  259.275000000002 148.5999999999941 0  259.5624999999954 147.7500000000135 0  259.849999999995 146.900000000015 0  260.1374999999945 146.0500000000164 0  260.4249999999913 145.2000000000259 0  260.7124999999948 144.3500000000154 0  260.0700000000398 143.5899999999961 0  259.1400000000573 143.6799999999944 0  258.2100000000351 143.7699999999966 0  257.2800000000262 143.8599999999975 0  256.350000000011 143.9499999999989 0  255.4199999999881 144.0400000000011 0  254.4899999999726 144.1300000000026 0  253.5599999999944 144.2200000000005 0  252.6300000000009 144.3099999999999 0  251.4166666666658 143.4499999999971 0  251.1333333333388 142.5000000000182 0  250.8500000000015 141.5500000000051 0  250.5666666666612 140.5999999999818 0  250.2833333333342 139.6500000000029 0  249.2500000000005 138.5500000000001 0  248.5000000000011 138.4000000000002 0  247.7499999999995 138.2499999999999 0  246.7750000000005 137.1875000000023 0  246.5500000000021 136.2750000000085 0  246.3250000000036 135.3625000000147 0  246.1000000000042 134.450000000017 0  245.8750000000022 133.5375000000088 0  245.650000000003 132.6250000000124 0  245.4250000000046 131.7125000000187 0  245.619999999996 129.9200000000084 0  246.0399999999992 129.0400000000017 0  246.4599999999987 128.1600000000028 0  246.8800000000001 127.2799999999997 0  246.8399999999988 125.6199999999979 0  246.3799999999984 124.8399999999973 0  245.9199999999991 124.0599999999985 0  245.4600000000036 123.2800000000062 0  245.0000000000049 122.5000000000082 0  244.5400000000036 121.7200000000062 0  244.0800000000033 120.9400000000056 0  243.6200000000016 120.1600000000027 0  243.1600000000012 119.3800000000021 0  241.9812499999996 117.9187499999997 0  241.2625000000007 117.2375000000007 0  240.5437500000017 116.5562500000017 0  239.8250000000041 115.875000000004 0  239.1062500000066 115.1937500000063 0  238.3875000000076 114.5125000000072 0  237.6687500000087 113.8312500000082 0  236.9500000000083 113.1500000000079 0  236.231250000008 112.4687500000076 0  235.512500000009 111.7875000000085 0  234.7937500000045 111.1062500000043 0  234.0750000000042 110.4250000000039 0  233.3562500000066 109.7437500000062 0  232.6375000000021 109.062500000002 0  231.9187500000031 108.381250000003 0  230.5500000000004 107.0375000000004 0  229.9000000000021 106.3750000000021 0  229.2500000000038 105.7125000000039 0  228.6000000000041 105.0500000000042 0  227.9500000000018 104.3875000000018 0  227.2999999999952 103.7249999999951 0  226.6500000000024 103.0625000000024 0  226.0555555555555 101.4555555555556 0  226.1111111111111 100.5111111111111 0  226.1666666666667 99.56666666666668 0  226.2222222222222 98.62222222222223 0  226.2777777777778 97.67777777777778 0  226.3333333333333 96.73333333333335 0  226.3888888888889 95.78888888888889 0  226.4444444444445 94.84444444444446 0  226 93.22499999999999 0  225.5000000000026 92.55000000000358 0  225.0000000000026 91.87500000000358 0  224.5 90.31250000000068 0  224.5 89.4250000000097 0  224.5 88.53750000001317 0  224.5 87.65000000001388 0  224.5 86.76250000001457 0  224.5 85.87500000001248 0  224.5 84.9874999999993 0  225.1666666666659 83.41333333333409 0  225.8333333333319 82.72666666666818 0  226.4999999999978 82.04000000000228 0  227.1666666666649 81.35333333333514 0  227.8333333333301 80.66666666667 0  228.4999999999942 79.980000000006 0  229.1666666666601 79.2933333333401 0  229.8333333333316 78.60666666666847 0  230.4999999999975 77.92000000000257 0  231.1666666666644 77.23333333333572 0  231.8333333333295 76.54666666667057 0  232.4999999999972 75.86000000000287 0  233.1666666666681 75.17333333333181 0  233.8333333333368 74.48666666666306 0  233.7499999999995 73.16666666666629 0  233.0000000000018 72.53333333333488 0  232.2500000000014 71.90000000000116 0  231.5000000000009 71.26666666666743 0  230.7500000000005 70.63333333333372 0  229.233333333333 68.75000000000006 0  230.0666666666665 68.60000000000004 0  230.8999999999995 68.45000000000009 0  231.7333333333325 68.30000000000015 0  232.566666666667 68.14999999999995 0  232.5499999999897 68.50000000000607 0  231.7 69 0  230.8500000000103 69.49999999999393 0  227.8300000000008 68.16000000000106 0  227.2600000000064 67.42000000000837 0  226.6900000000077 66.68000000001001 0  226.1200000000024 65.94000000000314 0  225.5500000000108 65.20000000001409 0  224.9800000000098 64.46000000001268 0  224.4100000000007 63.72000000000098 0  223.8399999999971 62.97999999999621 0  223.2699999999993 62.23999999999915 0  222.753846153846 60.56923076923239 0  222.8076923076921 59.63846153846478 0  222.8615384615381 58.70769230769827 0  222.9153846153842 57.77692307693071 0  222.9692307692302 56.84615384616315 0  223.0230769230761 55.91538461539836 0  223.0769230769224 54.98461538462665 0  223.1307692307688 54.05384615385345 0  223.184615384615 53.12307692308312 0  223.2384615384611 52.19230769231556 0  223.2923076923071 51.26153846154906 0  223.3461538461533 50.33076923077847 0  222.8400000000024 48.62000000000327 0  222.2800000000047 47.84000000000661 0  221.7200000000005 47.06000000000071 0  221.1600000000003 46.28000000000039 0  221.4500000000116 45.87500000000512 0  222.3 46.25 0  223.1499999999884 46.62499999999488 0  223.5600000000055 46.22000000000981 0  223.1199999999987 45.43999999999767 0  222.6800000000061 44.66000000001075 0  222.2399999999969 43.8799999999944 0  221.6400000000004 42.16000000000253 0  221.4800000000009 41.22000000000548 0  221.3200000000014 40.28000000000801 0  221.1600000000009 39.34000000000556 0  220.25 38.45 0  219.4749999999999 39.30000000000165 0  219.45 40.09999999999999 0  219.425 40.90000000000112 0  219.0166666666641 40.89999999999463 0  218.6333333333375 40.10000000000875 0  218.2500000000016 39.30000000000339 0  217.8666666666635 38.49999999999351 0  217.483333333337 37.70000000000762 0  216.1750000000165 36.78750000000201 0  215.2500000000275 36.67500000000335 0  214.3250000000385 36.56250000000469 0  213.4000000000277 36.45000000000337 0  212.4750000000059 36.33750000000072 0  211.5499999999838 36.22499999999803 0  210.6249999999835 36.11249999999799 0  209.6600000000001 35.14000000000318 0  209.6200000000001 34.28000000000268 0  209.5800000000001 33.42000000000284 0  209.5399999999998 32.55999999999681 0  208.6200000000117 31.34000000000476 0  207.7400000000138 30.98000000000564 0  206.8600000000162 30.62000000000662 0  205.9800000000174 30.26000000000711 0  204.2000000000054 30.02499999999925 0  203.2999999999946 30.15000000000076 0  202.3999999999945 30.27500000000076 0  201.2444444444438 31.32222222222468 0  200.9888888888895 32.24444444
[...]
<PointData  Vectors="f_12"> 
<DataArray  type="Float64"  Name="f_12"  NumberOfComponents="3" format="ascii">4.6530847987336282e-01 9.8715079942814629e-02 2.8531005837801621e-01  4.6530847987336316e-01 9.8715079942815517e-02 2.8531005837801865e-01  4.6530847987338314e-01 9.8715079942830436e-02 2.8531005837811052e-01  4.6530847987354801e-01 9.8715079942864353e-02 2.8531005837889933e-01  4.6530847993255697e-01 9.8715079848570017e-02 2.8531005869634962e-01  4.6530847988494539e-01 9.8715076380045896e-02 2.8531005910297624e-01  4.6530848000969149e-01 9.8715076330170959e-02 2.8531005977006368e-01  4.6530778170206560e-01 9.8715025668922290e-02 2.8530608392275753e-01  4.6529632281789374e-01 9.8722704182888754e-02 2.8523647786262318e-01  4.6524610553970452e-01 9.8781526165379219e-02 2.8491547342848061e-01  4.6393210603729990e-01 1.0184315118064659e-01 2.7549855314781085e-01  4.6250573731175532e-01 1.0732146364222690e-01 2.6395371140250534e-01  4.6262843275365878e-01 1.8430643021135418e-01 2.2108796321372043e-01  5.4770009735273595e-01 6.4878718771255173e-01 3.2280703144625161e-01  5.3112661998987387e-01 6.4264347494949658e-01 2.5605627788520841e-01  5.1464256679130294e-01 6.1459721597374362e-01 2.0375865038422664e-01  5.2313107271400738e-01 6.4439639453342223e-01 2.1644851893735906e-01  5.4499164459784422e-01 7.0675335165122488e-01 2.4850842566483111e-01  5.3994576008150896e-01 6.9918955179155318e-01 2.3700377484093876e-01  5.4417637382169270e-01 7.0777170866315731e-01 2.4493862174885317e-01  5.4204811316989343e-01 7.0374351890183773e-01 2.4080990271223568e-01  5.4061253753236105e-01 7.0085413789531736e-01 2.3795210746853623e-01  5.6783377837233173e-01 7.3362853255724014e-01 2.9940147179316556e-01  5.7202606051754612e-01 7.3870526671006254e-01 3.0660966537335532e-01  5.8070204505388656e-01 7.3698662233495482e-01 3.3352711371311683e-01  5.7086010159876444e-01 7.3970025980622556e-01 3.0210672399155009e-01  5.6951212053556244e-01 7.3904431498614176e-01 2.9875150481882462e-01  5.6721693010954033e-01 7.3925809614067295e-01 2.9151936842406390e-01  5.6721919619246652e-01 7.3924743491645717e-01 2.9153224040769266e-01  5.6755869975154505e-01 7.3814904371716117e-01 2.9376059226797269e-01  5.6334887673607059e-01 7.3422308654431934e-01 2.8487606262084697e-01  5.6048097412498132e-01 7.2748316631373466e-01 2.8323063391197123e-01  5.6367873595646867e-01 7.2749356099886231e-01 2.9405678454678003e-01  5.6410931238519590e-01 7.2721651883204430e-01 2.9585807720680718e-01  5.6349765851663292e-01 7.2676356761307148e-01 2.9438463347338745e-01  5.5481009674018567e-01 7.2037407487930682e-01 2.7162648323768207e-01  5.4813089054695596e-01 7.1182823645593019e-01 2.5584843907343102e-01  5.2697688542432042e-01 6.6713119414915267e-01 2.1293731556762607e-01  5.2985715537575184e-01 6.7552831837881577e-01 2.1749383179608220e-01  5.3029345728757027e-01 6.7704441667063353e-01 2.1793494981222258e-01  5.4035013142515032e-01 7.0247457865070695e-01 2.3472884532687038e-01  5.4040275911911517e-01 7.0241644120177771e-01 2.3498925190748787e-01  5.3415273866056856e-01 6.8719148361632088e-01 2.2448977990075555e-01  5.3676409070853370e-01 6.9355461789025263e-01 2.2899704165446536e-01  5.4727365330717570e-01 7.1494636750347962e-01 2.4872973300941975e-01  5.6118024548774414e-01 7.3154321048050741e-01 2.8014415932633130e-01  5.6692602285595584e-01 7.3227596491263836e-01 2.9803694034240164e-01  5.6123555163380034e-01 7.2461067640951249e-01 2.8761637544585755e-01  5.3879383184678165e-01 6.8231762774414506e-01 2.4731730630706938e-01  5.1749708065578548e-01 6.2428975488417471e-01 2.0886838370906260e-01  5.1528006806669835e-01 6.1266391407171283e-01 2.0927559979331353e-01  5.3435574376281081e-01 6.4991358663859800e-01 2.6411199519570316e-01  5.5703515090176237e-01 6.7327123767673069e-01 3.3315959241020038e-01  5.7001857698032887e-01 6.8173603508389302e-01 3.7068807267937964e-01  5.7353182889157150e-01 6.9016358342800255e-01 3.7147234418512504e-01  5.6721608839310622e-01 6.9740457154013524e-01 3.4079076048890056e-01  5.3178206200443623e-01 5.8908267113953505e-01 3.0584337261180722e-01  4.6864339747408068e-01 2.2954262726775895e-01 2.3151184059071508e-01  4.6181701509217987e-01 1.7100919334936285e-01 2.2442770903748341e-01  4.6197058331702567e-01 1.1365802814855212e-01 2.5734613015672142e-01  4.6516228222318590e-01 9.8893907285533864e-02 2.8437558680343555e-01  4.6526675434185905e-01 9.8745064560337464e-02 2.8505689220462116e-01  4.6527382202480022e-01 9.8738781354575658e-02 2.8510047553872270e-01  4.6529294297870072e-01 9.8723450377729491e-02 2.8521738111557199e-01  4.6530652106263742e-01 9.8715019031555593e-02 2.8529894024966734e-01  4.6530846539100351e-01 9.8715038314523190e-02 2.8530998834859522e-01  4.6530848008393733e-01 9.8715076098929988e-02 2.8531006020564886e-01  4.6530848012870135e-01 9.8715079087810936e-02 2.8531005985184926e-01  4.6530848003276126e-01 9.8715079559720795e-02 2.8531005926318875e-01  4.6530847991612156e-01 9.8715079894373864e-02 2.8531005860080644e-01  4.6530847991915797e-01 9.8715079894596200e-02 2.8531005861553321e-01  4.6530847987657353e-01 9.8715079942459413e-02 2.8531005839365120e-01  4.6530847987348239e-01 9.8715079942862230e-02 2.8531005837857876e-01  4.6530847987337565e-01 9.8715079942827716e-02 2.8531005837807583e-01  4.6530847987700974e-01 9.8715079941647937e-02 2.8531005839605211e-01  4.6530847987338819e-01 9.8715079942832101e-02 2.8531005837813200e-01  4.6530847987336615e-01 9.8715079942817960e-02 2.8531005837803036e-01  4.6530847987336327e-01 9.8715079942815365e-02 2.8531005837801837e-01  4.6530847987336277e-01 9.8715079942814699e-02 2.8531005837801654e-01  4.6530847987336271e-01 9.8715079942814629e-02 2.8531005837801637e-01  4.6530847987336277e-01 9.8715079942814671e-02 2.8531005837801632e-01  4.6530847987336282e-01 9.8715079942814643e-02 2.8531005837801643e-01  4.6530847987336282e-01 9.8715079942814657e-02 2.8531005837801637e-01  4.6530847987336277e-01 9.8715079942814588e-02 2.8531005837801637e-01  4.6530847987336266e-01 9.8715079942814615e-02 2.8531005837801632e-01  4.6530847987336260e-01 9.8715079942814685e-02 2.8531005837801637e-01  4.6530847987336260e-01 9.8715079942814671e-02 2.8531005837801643e-01  4.6530847987336277e-01 9.8715079942814726e-02 2.8531005837801660e-01  4.6530847987336293e-01 9.8715079942814810e-02 2.8531005837801654e-01  4.6530847987336282e-01 9.8715079942814879e-02 2.8531005837801671e-01  4.6530847987336305e-01 9.8715079942814976e-02 2.8531005837801671e-01  4.6530847987336299e-01 9.8715079942815087e-02 2.8531005837801737e-01  4.6530847987336316e-01 9.8715079942815226e-02 2.8531005837801798e-01  4.6530847987336382e-01 9.8715079942815892e-02 2.8531005837801965e-01  4.6530847987336393e-01 9.8715079942816183e-02 2.8531005837802126e-01  4.6530847987336454e-01 9.8715079942816669e-02 2.8531005837802326e-01  4.6530847987336493e-01 9.8715079942817363e-02 2.8531005837802581e-01  4.6530847987336610e-01 9.8715079942818168e-02 2.8531005837802964e-01  4.6530847987336693e-01 9.8715079942819153e-02 2.8531005837803447e-01  4.6530847987336826e-01 9.8715079942820472e-02 2.8531005837804113e-01  4.6530847987337032e-01 9.8715079942822026e-02 2.8531005837805001e-01  4.6530847987337298e-01 9.8715079942823983e-02 2.8531005837806200e-01  4.6530847987337609e-01 9.8715079942826300e-02 2.8531005837807727e-01  4.6530847987338031e-01 9.8715079942828743e-02 2.8531005837809581e-01  4.6530847987339075e-01 9.8715079942833558e-02 2.8531005837814566e-01  4.6530847987341128e-01 9.8715079942840706e-02 2.8531005837824425e-01  4.6530847987345475e-01 9.8715079942851447e-02 2.8531005837844947e-01  4.6530847987372881e-01 9.8715079942868156e-02 2.8531005837977313e-01  4.6530847987399138e-01 9.8715079942838124e-02 2.8531005838105788e-01  4.6530847987440832e-01 9.8715079942735387e-02 2.8531005838311779e-01  4.6530847987507035e-01 9.8715079942484435e-02 2.8531005838642071e-01  4.6530847987610446e-01 9.8715079941952763e-02 2.8531005839162987e-01  4.6530847987768803e-01 9.8715079940915690e-02 2.8531005839968321e-01  4.6530847988005958e-01 9.8715079939011782e-02 2.8531005841186713e-01  4.6530847988353252e-01 9.8715079935673147e-02 2.8531005842989288e-01  4.6530847988852642e-01 9.8715079929979993e-02 2.8531005845610413e-01  4.6530847989569091e-01 9.8715079920231000e-02 2.8531005849419672e-01  4.6530847990537444e-01 9.8715079904840561e-02 2.8531005854634328e-01  4.6530847991808288e-01 9.8715079880830198e-02 2.8531005861585512e-01  4.6530847995283525e-01 9.8715079791361945e-02 2.8531005881213306e-01  4.6530847998255592e-01 9.8715079687471147e-02 2.8531005898652051e-01  4.6530848001911373e-01 9.8715079517764218e-02 2.8531005921025526e-01  4.6530848005738817e-01 9.8715079249552418e-02 2.8531005946338339e-01  4.6530848008680414e-01 9.8715078845217782e-02 2.8531005969775874e-01  4.6530848008840020e-01 9.8715078264632578e-02 2.8531005982031055e-01  4.6530848003453051e-01 9.8715077461315429e-02 2.8531005969140033e-01  4.6530847978639434e-01 9.8715075672458893e-02 2.8531005871324622e-01  4.6530847967996253e-01 9.8715075178539030e-02 2.8531005823553945e-01  4.6530847965566874e-01 9.8715075047546091e-02 2.8531005812828580e-01  4.6530847967595168e-01 9.8715075130733007e-02 2.8531005821803901e-01  4.6530847975538442e-01 9.8715075421067236e-02 2.8531005858596281e-01  4.6530847986196300e-01 9.8715075808649591e-02 2.8531005908073742e-01  4.6530847996290164e-01 9.8715076169541352e-02 2.8531005955070282e-01  4.6530847989710394e-01 9.8715076004524699e-02 2.8531005922743463e-01  4.6530847939288628e-01 9.8715074730122074e-02 2.8531005675018617e-01  4.6530847807906828e-01 9.8715072045507543e-02 2.8531005012668298e-01  4.6530847508787526e-01 9.8715067334051290e-02 2.8531003465783883e-01  4.6530846843905588e-01 9.8715059621302156e-02 2.8530999945705499e-01  4.6530845420616423e-01 9.8715047869954081e-02 2.8530992258178994e-01  4.6530842395238153e-01 9.8715031331498337e-02 2.8530975622911431e-01  4.6530835906580387e-01 9.8715011051678805e-02 2.8530939365701063e-01  4.6530820949529900e-01 9.8714995219451471e-02 2.8530854504587594e-01  4.6530687002601068e-01 9.8715252566020040e-02 2.8530076049520742e-01  4.6530572218151089e-01 9.8715724397420046e-02 2.8529396091448977e-01  4.6530401730124754e-01 9.8716673180773040e-02 2.8528372428611581e-01  4.6530168412888895e-01 9.8718252706330542e-02 2.8526955100902568e-01  4.6529887390891289e-01 9.8720443222647530e-02 2.8525230479114977e-01  4.6529367245459524e-01 9.8725354296781462e-02 2.8521984159438657e-01  4.6528682554497852e-01 9.8732595489401581e-02 2.8517660089466784e-01  4.6527365841054225e-01 9.8747601528166667e-02 2.8509271789250590e-01  4.6519204141821202e-01 9.8855227174859298e-02 2.8456280010295820e-01  4.6512919304282169e-01 9.8951316704749451e-02 2.8414567021471582e-01  4.6504563566493151e-01 9.9093212968165145e-02 2.8358140300785967e-01  4.6493291529564085e-01 9.9304788803810828e-02 2.8280652310768589e-01  4.6478144028052992e-01 9.9619297414854660e-02 2.8174508575827512e-01  4.6458069707552907e-01 1.0008077954830533e-01 2.8030923677558128e-01  4.6431448918212986e-01 1.0076007169804457e-01 2.7836220317703436e-01  4.6352751024711031e-01 1.0308701945685268e-01 2.7240901218758162e-01  4.6320049783407635e-01 1.0420802939452024e-01 2.6984220166968176e-01  4.6291035092615335e-01 1.0534315564651237e-01 2.6748061942493789e-01  4.6266438069832100e-01 1.0646060750860020e-01 2.6538647849172009e-01  4.6233516272455744e-01 1.0856835144831027e-01 2.6222726336635976e-01  4.6204357265829038e-01 1.1108485530728485e-01 2.5905722372211909e-01  4.6169722324918422e-01 1.1478262836736210e-01 2.5489363893090661e-01  4.6134885161914641e-01 1.1979949034959257e-01 2.4997900692132857e-01  4.6105874662307927e-01 1.2626238097309353e-01 2.4460488614354239e-01  4.6088926673554381e-01 1.3437935437508761e-01 2.3902583462183352e-01  4.6090998466804889e-01 1.4433933119289119e-01 2.3354334226108531e-01  4.6118581996279073e-01 1.5623206281921159e-01 2.2847552699083290e-01  4.6176712417067362e-01 1.6991251476400893e-01 2.2417969962661222e-01  4.6411754654488002e-01 2.0344055697110666e-01 2.1889172620392636e-01  4.6646734425608499e-01 2.2875074385011038e-01 2.1793984980161954e-01  4.6968261586897236e-01 2.5907017201466825e-01 2.1865021709221277e-01  4.7386203910442565e-01 2.9419602179495097e-01 2.2132680246283210e-01  4.7898534071114396e-01 3.3314130208173826e-01 2.2601012257746825e-01  4.8500121188696516e-01 3.7465414659147250e-01 2.3268092603635571e-01  4.9179580488259478e-01 4.1718074602450272e-01 2.4117632119753693e-01  4.9916899394416886e-01 4.5889962121744760e-01 2.5116825449829411e-01  5.0685021909837125e-01 4.9804729372009404e-01 2.6218059283299611e-01  5.1458463335716931e-01 5.3338495038386791e-01 2.7373055173147914e-01  5.2207998436104042e-01 5.6408652613544874e-01 2.8522979226302630e-01  5.2905172318574523e-01 5.8979697483872950e-01 2.9607404265203890e-01  5.3530038797991086e-01 6.1072142858735257e-01 3.0577865946498078e-01  5.4053114164585980e-01 6.2696990320482182e-01 3.1366111947776615e-01  5.4469412099628889e-01 6.3945807076821271e-01 3.1945180010919694e-01  5.4936288967955726e-01 6.5497266742694948e-01 3.2342148102980078e-01  5.4988223807517878e-01 6.5897237814022869e-01 3.2146119125322142e-01  5.4935359006788442e-01 6.6117676883561505e-01 3.1702857022964931e-01  5.4776462422638184e-01 6.6161621313520302e-01 3.1001489658257325e-01  5.4523245186244562e-01 6.6037961621946351e-01 3.0067037426231252e-01  5.4177949348268839e-01 6.5729359745540306e-01 2.8903189766035636e-01  5.3729717414571443e-01 6.5186499025204037e-01 2.7479836211082892e-01  5.2498789821873004e-01 6.3176288066685948e-01 2.3810755967488517e-01  5.2072997818987676e-01 6.2323277390878706e-01 2.2594153403687842e-01  5.1756799103923812e-01 6.1638402206344178e-01 2.1695698080461615e-01  5.1534036619014356e-01 6.1143375823722645e-01 2.1049033518596796e-01  5.1396036308535664e-01 6.0857111028052591e-01 2.0616583867222468e-01  5.1335117387650209e-01 6.0784057709723238e-01 2.0369689066787069e-01  5.1339745602454456e-01 6.0903344970949369e-01 2.0275753729922502e-01  5.1392989509722797e-01 6.1164839451378539e-01 2.0296128531198473e-01  5.1559210264746358e-01 6.1819220470627556e-01 2.0509511056268298e-01  5.1728341247424936e-01 6.2436232863863539e-01 2.0758671079360555e-01  5.1967219683785559e-01 6.3274669934308925e-01 2.1118923905688816e-01  5.2708601804829047e-01 6.5712533077994273e-01 2.2245261821032150e-01  5.3042338244365939e-01 6.6736663208684843e-01 2.2747960367878675e-01  5.3346339665847087e-01 6.7627056203961422e-01 2.3200900955749576e-01  5.3625922137510029e-01 6.8411277422689387e-01 2.3612693120082764e-01  5.3878923905502663e-01 6.9093572637607503e-01 2.3980602977936499e-01  5.4106787099887010e-01 6.9686066655291212e-01 2.4307967539339553e-01  5.4307945492353049e-01 7.0195398911678319e-01 2.4591524609592699e-01  5.4615227821117973e-01 7.0980244596951336e-01 2.4989729772013711e-01  5.4653786997986209e-01 7.1101187256649201e-01 2.5016796403070274e-01  5.4651323050716194e-01 7.1129016744770179e-01 2.4983051716380092e-01  5.4620319009547724e-01 7.1093578709882821e-01 2.4906185360745514e-01  5.4568786577850936e-01 7.1012685384565555e-01 2.4797758091059000e-01  5.4502961775225522e-01 7.0899404203988547e-01 2.4667046230022194e-01  5.4428002080247273e-01 7.0764139499521739e-01 2.4522050294350609e-01  5.4348639867904569e-01 7.0616345496306088e-01 2.4370486424767751e-01  5.4269428672564746e-01 7.0465314734904549e-01 2.4220113811049657e-01  5.4194430315983932e-01 7.0319518388549285e-01 2.4078130349073246e-01  5.4127426933972911e-01 7.0187191972131435e-01 2.3951404069679216e-01  5.4071689921371924e-01 7.0075651340503253e-01 2.3846025726714129e-01  5.4029960322412940e-01 6.9991267954858016e-01 2.3767148421531428e-01  5.4004224226861064e-01 6.9938849126622948e-01 2.3718509980578134e-01  5.4001786292138476e-01 6.9934998185016206e-01 2.3713225177369948e-01  5.4020451146607318e-01 6.9976800943053075e-01 2.3746294116444844e-01  5.4050934311748877e-01 7.0044563728832077e-01 2.3800565624496373e-01  5.4093368716245427e-01 7.0137415667907754e-01 2.3876886912931181e-01  5.4146574082757493e-01 7.0251574965057273e-01 2.3973756977685445e-01  5.4266102428123986e-01 7.0494001889207436e-01 2.4198421344864113e-01  5.4182766784688552e-01 7.0334877607448121e-01 2.4037306884434487e-01  5.4129870719832829e-01 7.0230678135305902e-01 2.3934018996821932e-01  5.4093479353295171e-01 7.0161793143995899e-01 2.3865312250990428e-01  5.4069221359416220e-01 7.0142822802225235e-01 2.3836817962180903e-01  5.4074452649768767e-01 7.0105966344519710e-01 2.3817087354971228e-01  5.4102933918877671e-01 7.0181713129967904e-01 2.3884379455618610e-01  5.4149532237614362e-01 7.0269890933213519e-01 2.3972814645120083e-01  5.4624864762735359e-01 7.1144925211633370e-01 2.4906982981662248e-01  5.4808203998403682e-01 7.1447230335969758e-01 2.5283104889798841e-01  5.4996287664365084e-01 7.1732161777318937e-01 2.5680527324942659e-01  5.5195755686753190e-01 7.2007223259085051e-01 2.6114503653327698e-01  5.5409212436562361e-01 7.2272066373481947e-01 2.6592566102821275e-01  5.5637119523368106e-01 7.2523491067684753e-01 2.7117081717707936e-01  5.5880371753667746e-01 7.2758107504255876e-01 2.7691710142164139e-01  5.6141223921760341e-01 7.2973322590697387e-01 2.8323550277304277e-01  5.6427959095124647e-01 7.3169932524396786e-01 2.9035019348969676e-01  5.7133845654101323e-01 7.3501763255586960e-01 3.0860321636341476e-01  5.7394212217306040e-01 7.3573728266367744e-01 3.1558815515824340e-01  5.7610619932443596e-01 7.3612926131256540e-01 3.2148094549217121e-01  5.7789940472937595e-01 7.3631045165312081e-01 3.2642294910705805e-01  5.7934820053373870e-01 7.3637208610764937e-01 3.3044455830082142e-01  5.8046602960412652e-01 7.3637269254477156e-01 3.3356113983713476e-01  5.8126277495543821e-01 7.3635978554886905e-01 3.3577772559216063e-01  5.8175281743485774e-01 7.3636657548008688e-01 3.3711714739524035e-01  5.8195526053571001e-01 7.3641401793489836e-01 3.3761981160710708e-01  5.8189870717386638e-01 7.3651031621018970e-01 3.3735908834038048e-01  5.8161533158601264e-01 7.3665447233108849e-01 3.3642195678532016e-01  5.8115759836335401e-01 7.3683189307622776e-01 3.3496269639174658e-01  5.7992083045942744e-01 7.3720521681600282e-01 3.3109184266777886e-01  5.7863953798862877e-01 7.3751889819614047e-01 3.2711559475177948e-01  5.7696418199452104e-01 7.3786417900293899e-01 3.2193716431481345e-01  5.7488563883808219e-01 7.3822004903322436e-01 3.1552169425407844e-01  5.7107112323436737e-01 7.3925361478877982e-01 3.0321021463628178e-01  5.7088276744411726e-01 7.3951530106551544e-01 3.0237535877457805e-01  5.7085878464175965e-01 7.3965024746443420e-01 3.0215822518684909e-01  5.7085836403246171e-01 7.3965311258003885e-01 3.0215390221112326e-01  5.7082994734438353e-01 7.3954049044261705e-01 3.0219130985205805e-01  5.7068333732499832e-01 7.3937776868100524e-01 3.0192543522637066e-01  5.7026554572416011e-01 7.3920494980820228e-01 3.0085386601528669e-01  5.6864722854309668e-01 7.3896629160100846e-01 2.9621136678735510e-01  5.6800211461067474e-01 7.3899672308752218e-01 2.9421033674659236e-01  5.6756806419850092e-01 7.3910681019292956e-01 2.9276074907331257e-01  5.6730887002432351e-01 7.3921391367025480e-01 2.9184848077190562e-01  5.6722348400119060e-01 7.3924934012164822e-01 2.9154504484450305e-01  5.6727705443112886e-01 7.3920592906935878e-01 2.9175599576418959e-01  5.6742102879008049e-01 7.3908174837069940e-01 2.9233703572577407e-01  5.6757229097698669e-01 7.3879981397506600e-01 2.9310604870298990e-01  5.6628722534004927e-01 7.3698604879557483e-01 2.9108998777903150e-01  5.6535591705870736e-01 7.3619671958190691e-01 2.8904855637420196e-01  5.6461289232714318e-01 7.3553284372113159e-01 2.8744238689048962e-01  5.6402204284759971e-01 7.3495793625411932e-01 2.8620685349674357e-01  5.6358772330013696e-01 7.3449738614270987e-01 2.8533477724786177e-01  5.6308689198196771e-01 7.3388341897231490e-01 2.8441164815290426e-01  5.6264285010674020e-01 7.3327099451298428e-01 2.8366157513236750e-01  5.6211283365