<?xml version="1.0"?>
<VTKFile type="UnstructuredGrid"  version="0.1"  >
<UnstructuredGrid>
<Piece  NumberOfPoints="7288" NumberOfCells="14083">
<Points>
<DataArray  type="Float64"  NumberOfComponents="3"  format="ascii">239.8 188 0  250.2 180 0  258.2 172.4 0  257 169.4 0  259.9 157.4 0  258.7 150.3 0  261 143.5 0  251.7 144.4 0  250 138.7 0  247 138.1 0  245.2 130.8 0  247.3 126.4 0  242.7 118.6 0  231.2 107.7 0  226 102.4 0  226.5 93.90000000000001 0  224.5 91.19999999999999 0  224.5 84.09999999999999 0  234.5 73.80000000000001 0  228.4 68.90000000000001 0  230 70 0  233.4 68 0  222.7 61.5 0  220.6 45.5 0  223.4 49.40000000000001 0  224 47 0  221.8 43.09999999999999 0  221 38.40000000000001 0  219.5 38.5 0  219.4 41.69999999999999 0  217.1 36.90000000000001 0  209.7 36 0  209.5 31.69999999999999 0  205.1 29.90000000000001 0  201.5 30.40000000000001 0  199.2 38.69999999999999 0  201.8 41.40000000000001 0  194.8 53.80000000000001 0  196.1 57.69999999999999 0  193 59 0  191.4 66.09999999999999 0  193.5 66.5 0  194.1 64.40000000000001 0  195.6 64.69999999999999 0  195.4 72.40000000000001 0  199.5 77.30000000000001 0  197.7 86.90000000000001 0  200.6 87.5 0  201.5 91 0  198 94.80000000000001 0  198.6 100 0  197.3 105.4 0  198 109.5 0  197 112.7 0  198.3 116.1 0  201.3 122 0  207.2 121 0  208.1 126.7 0  205.6 127.9 0  209.1 134.9 0  210.9 144.4 0  210.1 147.9 0  213 148.4 0  215.4 149.3 0  215.1 152.8 0  219.9 159.7 0  220.3 163.2 0  218.7 164.9 0  219.9 166.7 0  221.9 169.7 0  220 170.3 0  224.9 174.7 0  229.8 177.4 0  229.7 181 0  228 172.9 0  239 178 0  240.4 180 0  239 181.5 0  241.2 185.9 0  242.95 187.99 0  240.5875 187.9975 0  241.375 187.995 0  242.1625 187.9925 0  243.6090909090879 187.2636363636397 0  244.2681818181765 186.5372727272785 0  244.9272727272692 185.810909090913 0  245.5863636363531 185.0845454545571 0  246.245454545445 184.3581818181923 0  246.9045454545351 183.6318181818295 0  247.5636363636303 182.9054545454612 0  248.2227272727197 182.1790909090992 0  248.8818181818179 181.4527272727275 0  249.5409090909066 180.7263636363664 0  250.8666666666961 179.3666666666387 0  251.5333333334033 178.7333333332668 0  252.2000000000994 178.0999999999055 0  252.8666666668011 177.466666666539 0  253.5333333335083 176.8333333331671 0  254.2000000002044 176.1999999998058 0  254.8666666669005 175.5666666664445 0  255.5333333336077 174.9333333330727 0  256.2000000002685 174.2999999997449 0  256.8666666668457 173.6666666664966 0  257.5333333334283 173.033333333243 0  257.9000000000077 171.6500000000191 0  257.6000000000015 170.9000000000038 0  257.2999999999954 170.1499999999885 0  257.2230769230778 168.4769230769195 0  257.4461538461543 167.5538461538442 0  257.6692307692309 166.6307692307688 0  257.8923076923074 165.7076923076935 0  258.115384615384 164.7846153846181 0  258.3384615384605 163.8615384615427 0  258.5615384615395 162.9384615384572 0  258.784615384616 162.0153846153819 0  259.0076923076926 161.0923076923065 0  259.2307692307691 160.1692307692311 0  259.4538461538457 159.2461538461558 0  259.6769230769222 158.3230769230804 0  259.750000000001 156.512500000006 0  259.6000000000014 155.6250000000082 0  259.4500000000029 154.7375000000176 0  259.3000000000018 153.8500000000108 0  259.1500000000007 152.962500000004 0  259.0000000000004 152.0750000000026 0  258.849999999999 151.187499999994 0  258.9875000000052 149.4499999999846 0  259.275000000002 148.5999999999941 0  259.5624999999954 147.7500000000135 0  259.849999999995 146.900000000015 0  260.1374999999945 146.0500000000164 0  260.4249999999913 145.2000000000259 0  260.7124999999948 144.3500000000154 0  260.0700000000398 143.5899999999961 0  259.1400000000573 143.6799999999944 0  258.2100000000351 143.7699999999966 0  257.2800000000262 143.8599999999975 0  256.350000000011 143.9499999999989 0  255.4199999999881 144.0400000000011 0  254.4899999999726 144.1300000000026 0  253.5599999999944 144.2200000000005 0  252.6300000000009 144.3099999999999 0  251.4166666666658 143.4499999999971 0  251.1333333333388 142.5000000000182 0  250.8500000000015 141.5500000000051 0  250.5666666666612 140.5999999999818 0  250.2833333333342 139.6500000000029 0  249.2500000000005 138.5500000000001 0  248.5000000000011 138.4000000000002 0  247.7499999999995 138.2499999999999 0  246.7750000000005 137.1875000000023 0  246.5500000000021 136.2750000000085 0  246.3250000000036 135.3625000000147 0  246.1000000000042 134.450000000017 0  245.8750000000022 133.5375000000088 0  245.650000000003 132.6250000000124 0  245.4250000000046 131.7125000000187 0  245.619999999996 129.9200000000084 0  246.0399999999992 129.0400000000017 0  246.4599999999987 128.1600000000028 0  246.8800000000001 127.2799999999997 0  246.8399999999988 125.6199999999979 0  246.3799999999984 124.8399999999973 0  245.9199999999991 124.0599999999985 0  245.4600000000036 123.2800000000062 0  245.0000000000049 122.5000000000082 0  244.5400000000036 121.7200000000062 0  244.0800000000033 120.9400000000056 0  243.6200000000016 120.1600000000027 0  243.1600000000012 119.3800000000021 0  241.9812499999996 117.9187499999997 0  241.2625000000007 117.2375000000007 0  240.5437500000017 116.5562500000017 0  239.8250000000041 115.875000000004 0  239.1062500000066 115.1937500000063 0  238.3875000000076 114.5125000000072 0  237.6687500000087 113.8312500000082 0  236.9500000000083 113.1500000000079 0  236.231250000008 112.4687500000076 0  235.512500000009 111.7875000000085 0  234.7937500000045 111.1062500000043 0  234.0750000000042 110.4250000000039 0  233.3562500000066 109.7437500000062 0  232.6375000000021 109.062500000002 0  231.9187500000031 108.381250000003 0  230.5500000000004 107.0375000000004 0  229.9000000000021 106.3750000000021 0  229.2500000000038 105.7125000000039 0  228.6000000000041 105.0500000000042 0  227.9500000000018 104.3875000000018 0  227.2999999999952 103.7249999999951 0  226.6500000000024 103.0625000000024 0  226.0555555555555 101.4555555555556 0  226.1111111111111 100.5111111111111 0  226.1666666666667 99.56666666666668 0  226.2222222222222 98.62222222222223 0  226.2777777777778 97.67777777777778 0  226.3333333333333 96.73333333333335 0  226.3888888888889 95.78888888888889 0  226.4444444444445 94.84444444444446 0  226 93.22499999999999 0  225.5000000000026 92.55000000000358 0  225.0000000000026 91.87500000000358 0  224.5 90.31250000000068 0  224.5 89.4250000000097 0  224.5 88.53750000001317 0  224.5 87.65000000001388 0  224.5 86.76250000001457 0  224.5 85.87500000001248 0  224.5 84.9874999999993 0  225.1666666666659 83.41333333333409 0  225.8333333333319 82.72666666666818 0  226.4999999999978 82.04000000000228 0  227.1666666666649 81.35333333333514 0  227.8333333333301 80.66666666667 0  228.4999999999942 79.980000000006 0  229.1666666666601 79.2933333333401 0  229.8333333333316 78.60666666666847 0  230.4999999999975 77.92000000000257 0  231.1666666666644 77.23333333333572 0  231.8333333333295 76.54666666667057 0  232.4999999999972 75.86000000000287 0  233.1666666666681 75.17333333333181 0  233.8333333333368 74.48666666666306 0  233.7499999999995 73.16666666666629 0  233.0000000000018 72.53333333333488 0  232.2500000000014 71.90000000000116 0  231.5000000000009 71.26666666666743 0  230.7500000000005 70.63333333333372 0  229.233333333333 68.75000000000006 0  230.0666666666665 68.60000000000004 0  230.8999999999995 68.45000000000009 0  231.7333333333325 68.30000000000015 0  232.566666666667 68.14999999999995 0  232.5499999999897 68.50000000000607 0  231.7 69 0  230.8500000000103 69.49999999999393 0  227.8300000000008 68.16000000000106 0  227.2600000000064 67.42000000000837 0  226.6900000000077 66.68000000001001 0  226.1200000000024 65.94000000000314 0  225.5500000000108 65.20000000001409 0  224.9800000000098 64.46000000001268 0  224.4100000000007 63.72000000000098 0  223.8399999999971 62.97999999999621 0  223.2699999999993 62.23999999999915 0  222.753846153846 60.56923076923239 0  222.8076923076921 59.63846153846478 0  222.8615384615381 58.70769230769827 0  222.9153846153842 57.77692307693071 0  222.9692307692302 56.84615384616315 0  223.0230769230761 55.91538461539836 0  223.0769230769224 54.98461538462665 0  223.1307692307688 54.05384615385345 0  223.184615384615 53.12307692308312 0  223.2384615384611 52.19230769231556 0  223.2923076923071 51.26153846154906 0  223.3461538461533 50.33076923077847 0  222.8400000000024 48.62000000000327 0  222.2800000000047 47.84000000000661 0  221.7200000000005 47.06000000000071 0  221.1600000000003 46.28000000000039 0  221.4500000000116 45.87500000000512 0  222.3 46.25 0  223.1499999999884 46.62499999999488 0  223.5600000000055 46.22000000000981 0  223.1199999999987 45.43999999999767 0  222.6800000000061 44.66000000001075 0  222.2399999999969 43.8799999999944 0  221.6400000000004 42.16000000000253 0  221.4800000000009 41.22000000000548 0  221.3200000000014 40.28000000000801 0  221.1600000000009 39.34000000000556 0  220.25 38.45 0  219.4749999999999 39.30000000000165 0  219.45 40.09999999999999 0  219.425 40.90000000000112 0  219.0166666666641 40.89999999999463 0  218.6333333333375 40.10000000000875 0  218.2500000000016 39.30000000000339 0  217.8666666666635 38.49999999999351 0  217.483333333337 37.70000000000762 0  216.1750000000165 36.78750000000201 0  215.2500000000275 36.67500000000335 0  214.3250000000385 36.56250000000469 0  213.4000000000277 36.45000000000337 0  212.4750000000059 36.33750000000072 0  211.5499999999838 36.22499999999803 0  210.6249999999835 36.11249999999799 0  209.6600000000001 35.14000000000318 0  209.6200000000001 34.28000000000268 0  209.5800000000001 33.42000000000284 0  209.5399999999998 32.55999999999681 0  208.6200000000117 31.34000000000476 0  207.7400000000138 30.98000000000564 0  206.8600000000162 30.62000000000662 0  205.9800000000174 30.26000000000711 0  204.2000000000054 30.02499999999925 0  203.2999999999946 30.15000000000076 0  202.3999999999945 30.27500000000076 0  201.2444444444438 31.32222222222468 0  200.9888888888895 32.24444444
[...]
<PointData  Vectors="f_12"> 
<DataArray  type="Float64"  Name="f_12"  NumberOfComponents="3" format="ascii">6.4286844223141815e-01 6.9104675033913232e-01 5.0258033439907324e-01  6.4456673212839766e-01 6.8103435853238159e-01 5.1775594848230944e-01  6.4616306492252407e-01 6.7030920163737640e-01 5.3360601407084729e-01  6.4671503535043129e-01 6.6553257043868652e-01 5.4046435302949480e-01  6.4940976034006792e-01 6.3697440355409574e-01 5.8010697911070219e-01  6.5028745201648108e-01 6.2120193877720298e-01 6.0087386115474350e-01  6.5055916717831763e-01 6.1668637308084961e-01 6.0673454680593031e-01  6.5053279439149536e-01 5.9644630776394814e-01 6.3173201282040947e-01  6.5024829419063002e-01 5.7101972140845358e-01 6.6182373550635143e-01  6.4987970663990502e-01 5.5989835049039993e-01 6.7435770226884972e-01  6.4813932091554916e-01 5.2534575279256945e-01 7.1128876192150459e-01  6.4747957184649896e-01 5.1571446358183282e-01 7.2099150759309671e-01  6.4644184874625976e-01 5.0366185903066318e-01 7.3269829897330407e-01  6.4393005687576954e-01 4.7944495792524372e-01 7.5489832065318252e-01  6.4276460491338938e-01 4.6942786478570198e-01 7.6356342649054576e-01  6.4217399427962862e-01 4.6450973131519480e-01 7.6770397916795374e-01  6.4210680662035613e-01 4.6394533599332044e-01 7.6817235925231131e-01  6.4210558351519187e-01 4.6386055001033777e-01 7.6823685371653216e-01  6.4221447459392877e-01 4.6467342825555646e-01 7.6755529434585634e-01  6.4218331564365949e-01 4.6443039841784217e-01 7.6775822179608388e-01  6.4219749974025120e-01 4.6454068624983114e-01 7.6766613173497422e-01  6.4220427915565159e-01 4.6459272727505818e-01 7.6762259504366015e-01  6.4200271926498687e-01 4.6303296813541989e-01 7.6892194935878433e-01  6.4161119502746700e-01 4.6003941237988871e-01 7.7139534765393736e-01  6.4171416139938309e-01 4.6082249625071581e-01 7.7075108746813081e-01  6.4158955182643673e-01 4.5987499408890703e-01 7.7153046797370506e-01  6.4158073851706099e-01 4.5980814876530235e-01 7.7158531187577717e-01  6.4155883811967496e-01 4.5964200695870194e-01 7.7172167142503911e-01  6.4155885425929315e-01 4.5964212941159904e-01 7.7172157059929780e-01  6.4156357518022089e-01 4.5967795083189672e-01 7.7169212102320028e-01  6.4151194495406993e-01 4.5928668579187942e-01 7.7201275397072955e-01  6.4144113711237016e-01 4.5875142916271183e-01 7.7245047633422692e-01  6.4139104071410413e-01 4.5837334663851381e-01 7.7275925715973415e-01  6.4137900053749453e-01 4.5828252216293613e-01 7.7283335499729966e-01  6.4137825382767322e-01 4.5827686272665802e-01 7.7283796441243302e-01  6.4142998880956958e-01 4.5866704616610865e-01 7.7251936240446117e-01  6.4150084735031010e-01 4.5920247970525035e-01 7.7208128603028814e-01  6.4182622513389642e-01 4.6167249747332784e-01 7.7004908190632360e-01  6.4190630340355526e-01 4.6228494318974594e-01 7.6954213168773755e-01  6.4195128468042262e-01 4.6262924040838438e-01 7.6925670967734627e-01  6.4204432018235547e-01 4.6334476417360937e-01 7.6866230573855965e-01  6.4204056540216647e-01 4.6331598072101865e-01 7.6868625587759210e-01  6.4198823729810028e-01 4.6291316199371302e-01 7.6902102987759335e-01  6.4200493392675007e-01 4.6304177287581527e-01 7.6891418988713489e-01  6.4205262343875502e-01 4.6341089381439177e-01 7.6860749424668318e-01  6.4203142723228812e-01 4.6325782170070756e-01 7.6873580080580806e-01  6.4193854112135651e-01 4.6256643855589186e-01 7.6931231452984805e-01  6.4191704374100522e-01 4.6241072375345810e-01 7.6944233092933256e-01  6.4183477524426080e-01 4.6181530684216732e-01 7.6993885607651869e-01  6.4176307277281464e-01 4.6130051169924180e-01 7.7036769533922222e-01  6.4177493250808459e-01 4.6142771064922966e-01 7.7026598859905471e-01  6.4184530417285535e-01 4.6201848177238214e-01 7.6978173353445589e-01  6.4196523311358300e-01 4.6298925989341899e-01 7.6897962620401672e-01  6.4206345191413328e-01 4.6378367819978455e-01 7.6832064633720543e-01  6.4219211803622722e-01 4.6482878636648212e-01 7.6744915681812487e-01  6.4246986198441480e-01 4.6711511433270758e-01 7.6552997038673809e-01  6.4326499829432426e-01 4.7390107691034533e-01 7.5972326009908331e-01  6.4498193002876625e-01 4.8931626938593664e-01 7.4605098776272738e-01  6.4527802976593829e-01 4.9207350633953695e-01 7.4353870432370295e-01  6.4641858876650105e-01 5.0391741161702208e-01 7.3243559551444004e-01  6.4835749825499434e-01 5.2749165715783741e-01 7.0914171982816987e-01  6.4862533247226817e-01 5.3123138871894293e-01 7.0530673501317132e-01  6.4878363250656357e-01 5.3404228999747738e-01 7.0237474057892402e-01  6.4929158470419401e-01 5.4362850750972080e-01 6.9221374460176588e-01  6.4987268801985421e-01 5.5615049468292288e-01 6.7861709656547509e-01  6.5052142897886289e-01 5.8753306803306704e-01 6.4249217694254857e-01  6.5052679984123962e-01 6.0556999333263350e-01 6.2056882050566364e-01  6.5049382881362394e-01 6.1081792850979622e-01 6.1405013230120775e-01  6.5043104273947250e-01 6.1418735306792915e-01 6.0979896453924121e-01  6.5024529725404034e-01 6.2062916926265577e-01 6.0157400067043343e-01  6.5032676506101672e-01 6.1892968286217753e-01 6.0377469357119040e-01  6.4977918938905677e-01 6.3065475005998461e-01 5.8850664425971921e-01  6.4806610133882725e-01 6.5339925253885522e-01 5.5765383484107267e-01  6.4785527956526834e-01 6.5621063596804829e-01 5.5376913745906564e-01  6.4930636509583339e-01 6.3689067431116497e-01 5.8013856144347953e-01  6.4617767530350323e-01 6.6835413951005707e-01 5.3624835187990927e-01  6.4450087586257576e-01 6.8037534463655147e-01 5.1860002917963066e-01  6.4386436952981652e-01 6.8468239307465395e-01 5.1218861631813362e-01  6.4305137816490598e-01 6.8993001805143606e-01 5.0427810811183693e-01  6.4294256530761285e-01 6.9061081507495281e-01 5.0324566156284378e-01  6.4287787512030659e-01 6.9099039119880745e-01 5.0266624057380416e-01  6.4289835352551472e-01 6.9086914357630802e-01 5.0285119953960111e-01  6.4292186719613120e-01 6.9073153207269333e-01 5.0306132025331662e-01  6.4299438533494391e-01 6.9030521991797578e-01 5.0371164812907721e-01  6.4308674941782762e-01 6.8976084085639922e-01 5.0454134575623755e-01  6.4320554956549980e-01 6.8906244746937229e-01 5.0560517236366409e-01  6.4334389873850595e-01 6.8825118370696725e-01 5.0683993818609296e-01  6.4349773221079787e-01 6.8735048132429555e-01 5.0820941595202651e-01  6.4366189176773414e-01 6.8639121232480127e-01 5.0966626660986269e-01  6.4383544176389307e-01 6.8537472598565452e-01 5.1120753491758819e-01  6.4401426951235363e-01 6.8432457729072860e-01 5.1279715983817031e-01  6.4419490557111125e-01 6.8325985269303890e-01 5.1440584693493308e-01  6.4437897231556451e-01 6.8216423954968564e-01 5.1605721220625456e-01  6.4473871852832199e-01 6.7998868433303516e-01 5.1932433828255065e-01  6.4490196979782888e-01 6.7898203081308028e-01 5.2083018997178587e-01  6.4506167730829267e-01 6.7797782778499682e-01 5.2232776596667829e-01  6.4521799676885938e-01 6.7697429693961864e-01 5.2381968915454202e-01  6.4536999340232293e-01 6.7597719605655693e-01 5.2529739677017007e-01  6.4551677151833264e-01 6.7499275346414811e-01 5.2675183753655963e-01  6.4565860945443587e-01 6.7401728773583880e-01 5.2818835175955781e-01  6.4579334871514305e-01 6.7306693899468184e-01 5.2958349371605706e-01  6.4591777177051535e-01 6.7216677262801416e-01 5.3090094513876662e-01  6.4602795230514631e-01 6.7134867922228458e-01 5.3209477032112573e-01  6.4611577454609626e-01 6.7067938742843269e-01 5.3306873066665517e-01  6.4621204241716601e-01 6.6989730133501557e-01 5.3420018556220350e-01  6.4631831644228055e-01 6.6899067175177851e-01 5.3550559394520758e-01  6.4647670248145406e-01 6.6762104265865851e-01 5.3747302642867101e-01  6.4701763404540313e-01 6.6283895618935429e-01 5.4430813468646722e-01  6.4728154718394104e-01 6.6043317957094017e-01 5.4772488457718549e-01  6.4753184859571633e-01 6.5808850679548592e-01 5.5103838320911125e-01  6.4777273020713755e-01 6.5576441375893146e-01 5.5430637828339102e-01  6.4800451044586616e-01 6.5345577288327561e-01 5.5753623264804664e-01  6.4822659647195069e-01 6.5116697964802484e-01 5.6072206150048509e-01  6.4843802728960231e-01 6.4890724093909569e-01 5.6385144384418528e-01  6.4863805564607580e-01 6.4668566558563711e-01 5.6691251432335676e-01  6.4882522460530656e-01 6.4451956258687371e-01 5.6988208376062011e-01  6.4899918161607317e-01 6.4241397434659098e-01 5.7275420529597776e-01  6.4915775130186470e-01 6.4040523296135032e-01 5.7548104535066746e-01  6.4929846253675527e-01 6.3853338498236956e-01 5.7801008298193934e-01  6.4951119379096844e-01 6.3544777196900804e-01 5.8214970033460300e-01  6.4962609371840563e-01 6.3362496460379947e-01 5.8457841467467464e-01  6.4974395508200056e-01 6.3165765771907889e-01 5.8718820516471837e-01  6.4985996894346987e-01 6.2961518677938466e-01 5.8988544797835185e-01  6.4997205317529261e-01 6.2753862198088617e-01 5.9261522689770241e-01  6.5007926229354374e-01 6.2545927676328716e-01 5.9533658984162530e-01  6.5018245016050547e-01 6.2337504675418998e-01 5.9805271535057913e-01  6.5037448655902919e-01 6.1949645970721989e-01 6.0308451122021123e-01  6.5043570663752470e-01 6.1833054992496350e-01 6.0459299700160285e-01  6.5048008874136010e-01 6.1756945726412049e-01 6.0557836576597945e-01  6.5051268431406983e-01 6.1707542797188697e-01 6.0621920901805160e-01  6.5053531654951868e-01 6.1680336230849397e-01 6.0657434654845854e-01  6.5054968501731802e-01 6.1668963587376402e-01 6.0672535360270818e-01  6.5055716492196658e-01 6.1667402897692003e-01 6.0674902217778914e-01  6.5055793616341662e-01 6.1662530694058793e-01 6.0681078124163568e-01  6.5055525285522087e-01 6.1637215991731920e-01 6.0712799995388023e-01  6.5055258299774366e-01 6.1585072717484934e-01 6.0778246820311066e-01  6.5055044123880035e-01 6.1501086272749761e-01 6.0883646819403214e-01  6.5054956287796839e-01 6.1378099580600087e-01 6.1037812200113839e-01  6.5055007118766950e-01 6.1209968907909007e-01 6.1248083904433481e-01  6.5055113632842820e-01 6.0989122028033527e-01 6.1523269288136395e-01  6.5055140959084845e-01 6.0701206371211802e-01 6.1880180238524807e-01  6.5054815523291110e-01 6.0307559907362385e-01 6.2364704448794805e-01  6.5049601753160746e-01 5.8882905318687373e-01 6.4091634864325286e-01  6.5045188436707713e-01 5.8356528707212840e-01 6.4718663261909559e-01  6.5039828972252101e-01 5.7916095550061131e-01 6.5237534502087624e-01  6.5034062482651245e-01 5.7551792750711350e-01 6.5662688052042650e-01  6.5028599952877331e-01 5.7267189226432513e-01 6.5992295962103809e-01  6.5022006600133031e-01 5.7002275243338729e-01 6.6296111220103215e-01  6.5015640205218561e-01 5.6792504863209914e-01 6.6534396100052806e-01  6.5005439005837051e-01 5.6482230830610991e-01 6.6884528781838537e-01  6.4962402680781095e-01 5.5334785705267076e-01 6.8161173050801560e-01  6.4941338500220558e-01 5.4846613354441087e-01 6.8694795751164772e-01  6.4921175883736293e-01 5.4417327574178187e-01 6.9158445472644137e-01  6.4901196219240131e-01 5.4021865739138153e-01 6.9580840299817570e-01  6.4881107561480167e-01 5.3649263911402512e-01 6.9974616006855861e-01  6.4860626095803731e-01 5.3290651156971713e-01 7.0349791305260723e-01  6.4839138428531706e-01 5.2933612457202206e-01 7.0719635039133666e-01  6.4790925082766815e-01 5.2184553451181626e-01 7.1484613461049995e-01  6.4774844637917184e-01 5.1948024997180808e-01 7.1723097163317484e-01  6.4762455822389386e-01 5.1771113726538387e-01 7.1900337508395096e-01  6.4753227997797980e-01 5.1642805169220873e-01 7.2028261840296004e-01  6.4743250302937039e-01 5.1510862536141977e-01 7.2159056659422782e-01  6.4735494832506313e-01 5.1413526532566767e-01 7.2255026323313876e-01  6.4725983443975288e-01 5.1296748314916707e-01 7.2369783923048980e-01  6.4715217453074692e-01 5.1167258217769873e-01 7.2496562413460330e-01  6.4703704186970756e-01 5.1031603585780383e-01 7.2628848106156130e-01  6.4691665704394163e-01 5.0892454543287902e-01 7.2763975316467366e-01  6.4679338895155802e-01 5.0752523558887541e-01 7.2899284007486798e-01  6.4666996282386524e-01 5.0614833328913933e-01 7.3031859468690197e-01  6.4654986436129314e-01 5.0482988841667520e-01 7.3158278055935555e-01  6.4632064329972583e-01 5.0237378283409984e-01 7.3392301434966711e-01  6.4618199066933546e-01 5.0092236039470173e-01 7.3529689815146015e-01  6.4603514482585944e-01 4.9940675118763561e-01 7.3672501276371771e-01  6.4588207358751137e-01 4.9784858367571672e-01 7.3818607933334424e-01  6.4572469112629083e-01 4.9626736453653081e-01 7.3966152555879838e-01  6.4556430226824613e-01 4.9467660636240385e-01 7.4113843402216750e-01  6.4540158356636312e-01 4.9308273940149128e-01 7.4261070594038836e-01  6.4523736376071894e-01 4.9149352147230141e-01 7.4407118443918241e-01  6.4507250230192903e-01 4.8991672676623516e-01 7.4551285533605227e-01  6.4490729604650932e-01 4.8835460697196914e-01 7.4693378534640376e-01  6.4474225982459987e-01 4.8681119281849866e-01 7.4833056728801339e-01  6.4457799359634593e-01 4.8529127860307791e-01 7.4969916732128872e-01  6.4441436398820662e-01 4.8379286100541341e-01 7.5104162077136605e-01  6.4425234927494079e-01 4.8232458559415614e-01 7.5235036870764060e-01  6.4409116132001376e-01 4.8087777382171337e-01 7.5363363629727287e-01  6.4378110892581619e-01 4.7813172764840511e-01 7.5605198387467687e-01  6.4363657077142633e-01 4.7686763583403191e-01 7.5715748495384438e-01  6.4349500504256929e-01 4.7563867855526132e-01 7.5822766528633589e-01  6.4335576092151547e-01 4.7443886895349607e-01 7.5926780018288198e-01  6.4321814113208708e-01 4.7326102317213159e-01 7.6028454504690079e-01  6.4307993279094977e-01 4.7208562120036163e-01 7.6129483849784174e-01  6.4293568470867035e-01 4.7086628682791209e-01 7.6233817718357455e-01  6.4261075464535866e-01 4.6813996687027620e-01 7.6465565991755313e-01  6.4250625249424720e-01 4.6726825128994653e-01 7.6539205503703034e-01  6.4242423505353252e-01 4.6658595775751516e-01 7.6596655493481725e-01  6.4235727262604914e-01 4.6602997436063986e-01 7.6643344285661918e-01  6.4230191556620864e-01 4.6557089244891869e-01 7.6681809552198110e-01  6.4225651445431597e-01 4.6519454320264619e-01 7.6713282522428472e-01  6.4222001128908823e-01 4.6489186748020606e-01 7.6738552789291936e-01  6.4219195282874197e-01 4.6465899582450076e-01 7.6757967978262498e-01  6.4216114085142073e-01 4.6440274654264957e-01 7.6779295079925114e-01  6.4214409656714133e-01 4.6426040432846294e-01 7.6791120441055427e-01  6.4212613413568720e-01 4.6410949992127737e-01 7.6803640254138017e-01  6.4209134414336655e-01 4.6381091781093647e-01 7.6828337297804639e-01  6.4208289747120484e-01 4.6373420447503483e-01 7.6834644607130775e-01  6.4207879912383059e-01 4.6369276782255697e-01 7.6838019309525518e-01  6.4207804797404244e-01 4.6367825972294280e-01 7.6839155191404407e-01  6.4208035686683773e-01 4.6368818052266070e-01 7.6838259665446096e-01  6.4208522071976526e-01 4.6371838191721637e-01 7.6835676762547533e-01  6.4209295512876985e-01 4.6377101734488135e-01 7.6831224483211902e-01  6.4212101423016954e-01 4.6397273113502224e-01 7.6814263650859138e-01  6.4213378790467068e-01 4.6406678534791673e-01 7.6806372933613687e-01  6.4214543821880465e-01 4.6415323984466600e-01 7.6799123686396353e-01  6.4215618979173372e-01 4.6423346758425960e-01 7.6792398574683163e-01  6.4216607843793017e-01 4.6430756256202688e-01 7.6786188580411363e-01  6.4217509790717531e-01 4.6437536280601099e-01 7.6780506656169822e-01  6.4218322703029040e-01 4.6443663083259845e-01 7.6775372387423957e-01  6.4219044547767878e-01 4.6449115474954616e-01 7.6770803372491692e-01  6.4219674068678489e-01 4.6453878989157771e-01 7.6766811634706900e-01  6.4220209789765170e-01 4.6457938961859180e-01 7.6763409454066700e-01  6.4220650616154806e-01 4.6461283906512563e-01 7.6760606441013957e-01  6.4220995201212294e-01 4.6463901495668075e-01 7.6758412962564559e-01  6.4221242355359875e-01 4.6465780786105870e-01 7.6756838198204347e-01  6.4221390815596691e-01 4.6466910433696257e-01 7.6755891623866290e-01  6.4221393067809174e-01 4.6466919335845530e-01 7.6755883331439323e-01  6.4221247244886837e-01 4.6465781113100113e-01 7.6756834188791845e-01  6.4221007156936172e-01 4.6463905721165855e-01 7.6758400620842204e-01  6.4220673069041190e-01 4.6461295404068015e-01 7.6760580606307183e-01  6.4220248856038986e-01 4.6457978706574810e-01 7.6763349919042601e-01  6.4219302517114840e-01 4.6450577175814628e-01 7.6769527757750367e-01  6.4219795498029930e-01 4.6454394711619307e-01 7.6766338115954735e-01  6.4220078534062097e-01 4.6456579326048408e-01 7.6764511806545122e-01  6.4220263269735678e-01 4.6458003663461550e-01 7.6763320796371404e-01  6.4220374964112192e-01 4.6458864578857034e-01 7.6762600838074790e-01  6.4220364301031252e-01 4.6458782389831760e-01 7.6762669572334907e-01  6.4220216043793887e-01 4.6457639851600135e-01 7.6763625057269302e-01  6.4219985790745659e-01 4.6455867181045007e-01 7.6765107573930358e-01  6.4216945215974974e-01 4.6432262606120289e-01 7.6784817740546274e-01  6.4215702600190072e-01 4.6422605328402011e-01 7.6792875336359001e-01  6.4214414570304668e-01 4.6412602667715064e-01 7.6801218109495484e-01  6.4213029708580838e-01 4.6401858132016061e-01 7.6810176428162891e-01  6.4211517715731270e-01 4.6390139307729938e-01 7.6819943304595228e-01  6.4209855697028728e-01 4.6377271277683718e-01 7.6830663412939038e-01  6.4208010840899576e-01 4.6363003123571284e-01 7.6842544232161014e-01  6.4205930941172717e-01 4.6346934972748488e-01 7.6855916531399915e-01  6.4203499835912792e-01 4.6328175095600693e-01 7.6871519016977319e-01  6.4196877512417050e-01 4.6277168862377926e-01 7.6913892457867472e-01  6.4194111244039931e-01 4.6255901137081984e-01 7.6931539562468121e-01  6.4191528671258391e-01 4.6236066453338798e-01 7.6947985197549562e-01  6.4189056067769690e-01 4.6217095231934080e-01 7.6963703478800449e-01  6.4186656156274391e-01 4.6198698494407242e-01 7.6978935213849498e-01  6.4184326062484032e-01 4.6180852639467823e-01 7.6993700877338100e-01  6.4182068240856127e-01 4.6163574769805144e-01 7.7007987265039968e-01  6.4179892606754785e-01 4.6146939151119276e-01 7.7021733943405934e-01  6.4177814770673880e-01 4.6131063404659600e-01 7.7034844821060766e-01  6.4175862433456043e-01 4.6116157347414027e-01 7.7047147844178343e-01  6.4174071366270413e-01 4.6102491786365307e-01 7.7058421015475798e-01  6.4172507924580902e-01 4.6090570247061380e-01 7.7068250802228078e-01  6.4170270239262972e-01 4.6073522636967296e-01 7.7082297868099847e-01  6.4168666031337418e-01 4.6061311773041941e-01 7.7092352541626974e-01  6.4166750367266789e-01 4.6046738356177103e-01 7.7104346412416902e-01  6.4164447411389436e-01 4.6029228979525250e-01 7.7118747989963066e-01  6.4159565125602269e-01 4.5992133401017832e-01 7.7149238641266626e-01  6.4159132551765574e-01 4.5988847147114664e-01 7.7151939201361575e-01  6.4158994494363930e-01 4.5987798150027903e-01 7.7152801277592131e-01  6.4158991767589790e-01 4.5987777432536092e-01 7.7152818301295356e-01  6.4159054314916963e-01 4.5988252991470879e-01 7.7152427278820690e-01  6.4159035641751827e-01 4.5988112401287329e-01 7.7152541851513967e-01  6.4158739482234783e-01 4.5985865638247742e-01 7.7154385601940856e-01  6.4157242936356029e-01 4.5974510451673567e-01 7.7163705577040120e-01  6.4156620469028269e-01 4.5969788276663937e-01 7.7167581099644611e-01  6.4156205467648564e-01 4.5966640330083147e-01 7.7170164741282377e-01  6.4155966103587658e-01 4.5964824822199990e-01 7.7171654867450667e-01  6.4155889346035644e-01 4.5964242670942246e-01 7.7172132672316229e-01  6.4155938906700649e-01 4.5964618564462789e-01 7.7171824064843453e-01  6.4156078596074562e-01 4.5965678092957457e-01 7.7170954139615255e-01  6.4156253419150933e-01 4.5967004359818336e-01 7.7169864513537989e-01  6.4155068769588564e-01 4.5958023867176362e-01 7.7177222259417311e-01  6.4153968079636747e-01 4.5949680692073819e-01 7.7184060931175114e-01  6.4152995597130047e-01 4.5942311415442011e-01 7.7190099855829841e-01  6.4152170686886290e-01 4.5936061989101146e-01 7.7195219845496088e-01  6.4151537481793952e-01 4.5931265961294693e-01 7.7199148268835560e-01  6.4150900117875442e-01 4.5926439968144511e-01 7.7203099848657653e-01  6.4150420664431285e-01 4.5922811063959734e-01 7.7206070050886377e-01  6.4149819527